SCRATCH DIRECTORY IS: /media/scratch/dumitruc/cerium.8174

                                 *****************
                                 * O   R   C   A *
                                 *****************

                                            #,                                       
                                            ###                                      
                                            ####                                     
                                            #####                                    
                                            ######                                   
                                           ########,                                 
                                     ,,################,,,,,                         
                               ,,#################################,,                 
                          ,,##########################################,,             
                       ,#########################################, ''#####,          
                    ,#############################################,,   '####,        
                  ,##################################################,,,,####,       
                ,###########''''           ''''###############################       
              ,#####''   ,,,,##########,,,,          '''####'''          '####       
            ,##' ,,,,###########################,,,                        '##       
           ' ,,###''''                  '''############,,,                           
         ,,##''                                '''############,,,,        ,,,,,,###''
      ,#''                                            '''#######################'''  
     '                                                          ''''####''''         
             ,#######,   #######,   ,#######,      ##                                
            ,#'     '#,  ##    ##  ,#'     '#,    #''#        ,####,    ,#,          
            ##       ##  ##   ,#'  ##            #'  '#       #'       ,# #          
            ##       ##  #######   ##           ,######,      #####,      #          
            '#,     ,#'  ##    ##  '#,     ,#' ,#      #,     #,   #      #          
             '#######'   ##     ##  '#######'  #'      '#     '####' #    #          



                #########################################################
                #                        -***-                          #
                #          Department of theory and spectroscopy        #
                #                                                       #
                #                      Frank Neese                      #
                #                                                       #
                #     Directorship, Architecture, Infrastructure        #
                #                    SHARK, DRIVERS                     #
                #        Core code/Algorithms in most modules           #
                #                                                       #
                #        Max Planck Institute fuer Kohlenforschung      #
                #                Kaiser Wilhelm Platz 1                 #
                #                 D-45470 Muelheim/Ruhr                 #
                #                      Germany                          #
                #                                                       #
                #                  All rights reserved                  #
                #                        -***-                          #
                #########################################################


                         Program Version 6.1.0  -  RELEASE   -
                                (GIT: $679e74b$)
                          ($2025-06-10 18:02:51 +0200$)


 With contributions from (in alphabetic order):
[Max-Planck-Institut fuer Kohlenforschung]                               
  Daniel Aravena         : Magnetic Suceptibility                        
  Michael Atanasov       : Ab Initio Ligand Field Theory (pilot matlab implementation)
  Alexander A. Auer      : GIAO ZORA, VPT2 properties, NMR spectrum      
  Ute Becker             : All parallelization in ORCA, NUMFREQ, NUMCALC 
  Giovanni Bistoni       : ED, misc. LED, open-shell LED, HFLD           
  Dmytro Bykov           : pre 5.0 version of the SCF Hessian            
  Marcos Casanova-Páez   : Triplet and SCS-CIS(D). UHF-(DLPNO)-IP/EA/STEOM-CCSD. UHF-CVS-IP/STEOM-CCSD   
  Vijay G. Chilkuri      : MRCI spin determinant printing, contributions to CSF-ICE 
  Pauline Colinet        : FMM embedding                                 
  Dipayan Datta          : RHF DLPNO-CCSD density                        
  Achintya Kumar Dutta   : EOM-CC, STEOM-CC                              
  Nicolas Foglia         : Exact transition moments, OPA infrastructure, MCD improvements    
  Dmitry Ganyushin       : Spin-Orbit,Spin-Spin,Magnetic field MRCI      
  Miquel Garcia-Rates    : C-PCM and meta-GGA Hessian, CCSD/C-PCM, Gaussian charge scheme 
  Tiago L. C. Gouveia    : GS-ROHF, GS-ROCIS                             
  Yang Guo               : DLPNO-NEVPT2, F12-NEVPT2, CIM, IAO-localization        
  Andreas Hansen         : Spin unrestricted coupled pair/coupled cluster methods 
  Ingolf Harden          : AUTO-CI MPn and infrastructure                
  Benjamin Helmich-Paris : MC-RPA, TRAH-(SCF,CASSCF), AVAS, COSX integrals, SCF dyn. polar., MC-PDFT, srDFT 
  Lee Huntington         : MR-EOM, pCC                                   
  Robert Izsak           : Overlap fitted RIJCOSX, COSX-SCS-MP3, EOM     
  Riya Kayal             : Wick's Theorem for AUTO-CI, AUTO-CI UHF-CCSDT 
  Emily Kempfer          : AUTO-CI RHF CISDT and CCSDT, approximate NEVPT4
  Christian Kollmar      : KDIIS, OOCD, Brueckner-CCSD(T), CCSD density, CASPT2, CASPT2-K, improved NEVPT2 
  Axel Koslowski         : Symmetry handling                             
  Simone Kossmann        : meta-GGA functionals, TD-DFT gradient, OOMP2, (MP2 Hessian; deprecated post 5.0) 
  Lucas Lang             : DCDCAS, Hyperfine gauge corrections, ICE-SOC+SSC
  Marvin Lechner         : AUTO-CI (C++ implementation), FIC-MRCC        
  Spencer Leger          : CASSCF response                               
  Dagmar Lenk            : GEPOL surface, SMD, ORCA-2-JSON               
  Dimitrios Liakos       : Extrapolation schemes; Compound Job, Property file
  Dimitrios Manganas     : Further ROCIS development; embedding schemes. LFT, Crystal Embedding 
  Dimitrios Pantazis     : SARC Basis sets                               
  Anastasios Papadopoulos: AUTO-CI, single reference methods and gradients 
  Taras Petrenko         : pre 6.0 DFT Hessian and TD-DFT gradient,  ECA, NRVS 
  Petra Pikulova         : Analytic Raman intensities                    
  Peter Pinski           : DLPNO-MP2, DLPNO-MP2 Gradient                 
  Shashank Vittal Rao    : ES-AILFT, MagRelax                            
  Christoph Reimann      : Effective Core Potentials                     
  Marius Retegan         : Local ZFS, SOC                                
  Christoph Riplinger    : Optimizer, TS searches, QM/MM, DLPNO-CCSD(T), (RO)-DLPNO pert. Triples 
  Michael Roemelt        : Original ROCIS implementation, recursive CI coupling coefficients
  Masaaki Saitow         : Open-shell DLPNO-CCSD energy and density      
  Barbara Sandhoefer     : DKH picture change effects                    
  Yorick L. A. Schmerwitz: GMF and freeze-and-release deltaSCF, NEB S-IDPP initial path                    
  Kantharuban Sivalingam : CASSCF convergence/infrastructure, NEVPT2, NEVPT3, NEVPT4(SD), FIC-MRCI and CEPA variants
  Bernardo de Souza      : ESD, SOC TD-DFT                               
  Georgi L. Stoychev     : AutoAux, RI-MP2 NMR, DLPNO-MP2 response, X2C  
  Van Anh Tran           : RI-MP2 g-tensors                              
  Willem Van den Heuvel  : Paramagnetic NMR                              
  Zikuan Wang            : NOTCH, Electric field optimization            
  Frank Wennmohs         : Technical directorship and infrastructure     
  Hang Xu                : AUTO-CI-Response properties                   
                                                                         
[FACCTs GmbH]                                                            
  Markus Bursch, Nicolas Foglia, Miquel Garcia-Rates, Ingolf Harden, Hagen Neugebauer, Anastasios Papadopoulos, 
  Christoph Riplinger, Bernardo de Souza, Georgi L. Stoychev                                                    
                                                                 
  APM, various basis sets, CI-OPT, improved COSX, DLPNO-Multilevel,           
  DOCKER, DRACO, updates on ESD, Fragmentator, GOAT, IRC, LR-CPCM, L-BFGS, MBIS, meta-GGA TD-DFT gradient, ML-optimized integration grids, 
  MM, NACMEs, nearIR, NEB, NEB-TS, NL-DFT gradient (VV10), 2- and 3-layer-ONIOM, interface openCOSMO-RS, QMMM,   
  Crystal-QMMM, RESP, rigid body optimization, SF, symmetry and pop. for TD-DFT, various functionals, SOLVATOR                                   
                                                                         
[Other institutions]                                                     
  V. Asgeirsson          : NEB                                           
  Christoph Bannwarth    : sTDA-DFT, sTD-DFT, PBEh-3c, B97-3c, D3        
  Giovanni Bistoni       : ETS/NOCV, ADLD/ADEX, COVALED                  
  Martin Brehm           : Molecular dynamics                            
  Ronald Cardenas        : ETS/NOCV                                      
  Martina Colucci        : COVALED                                       
  Sebastian Ehlert       : rSCAN, r2SCAN, r2SCAN-3c, D4, dhf basis sets  
  Marvin Friede          : D4 for Fr, Ra, Ac-Lr                          
  Lars Goerigk           : TD-DFT with DH, B97 family of functionals     
  Stefan Grimme          : VdW corrections, initial TS optimization, DFT functionals, gCP, sTDA/sTD-DF 
  Waldemar Hujo          : DFT-NL                                        
  H. Jonsson             : NEB                                           
  Holger Kruse           : gCP                                           
  Marcel Mueller         : wB97X-3c, vDZP basis set                      
  Hagen Neugebauer       : wr2SCAN, Native XTB                           
  Gianluca Regni         : ADLD/ADEX                                     
  Tobias Risthaus        : pre 6.0 range-separated hybrid DFT and stability analysis
  Lukas Wittmann         : regularized MP2, r2SCAN double-hybrids, wr2SCAN        
                                                                         
We gratefully acknowledge several colleagues who have allowed us to      
interface, adapt or use parts of their codes:                            
  Ed Valeev, F. Pavosevic, A. Kumar             : LibInt (2-el integral package), F12 methods 
  Garnet Chan, S. Sharma, J. Yang, R. Olivares  : DMRG                   
  Ulf Ekstrom                                   : XCFun DFT Library      
  Mihaly Kallay                                 : mrcc  (arbitrary order and MRCC methods)
  Frank Weinhold                                : gennbo (NPA and NBO analysis)           
  Simon Mueller                                 : openCOSMO-RS                            
  Christopher J. Cramer and Donald G. Truhlar   : smd solvation model                     
  S Lehtola, MJT Oliveira, MAL Marques          : LibXC Library                           
  Liviu Ungur et al                             : ANISO software                          


 Your calculation uses the libint2 library for the computation of 2-el integrals
 For citations please refer to: http://libint.valeyev.net

 Your ORCA version has been built with support for libXC version: 7.0.0
 For citations please refer to: https://libxc.gitlab.io

 This ORCA versions uses:
   CBLAS   interface :  Fast vector & matrix operations
   LAPACKE interface :  Fast linear algebra routines
   SCALAPACK package :  Parallel linear algebra routines
   Shared memory     :  Shared parallel matrices
   BLAS/LAPACK       :  OpenBLAS 0.3.29  USE64BITINT DYNAMIC_ARCH NO_AFFINITY Haswell SINGLE_THREADED
        Core in use  :  Haswell
   Copyright (c) 2011-2014, The OpenBLAS Project


  ***********************************
  * Starting time: Thu Oct 16 09:57:50 2025
  * Host name:     bohr
  * Process ID:    857233
  * Working dir.:  /media/scratch/dumitruc/cerium.8174
  ***********************************

NOTE: MaxCore=2000 MB was set to SCF,MP2,MDCI,CIPSI,MRCI,RASCI and CIS
      => If you want to overwrite this, your respective input block should be placed after the MaxCore statement
================================================================================

----- Orbital basis set information -----
Your calculation utilizes the basis: SARC2-DKH-QZVP
   D. Aravena, F. Neese and D. A. Pantazis, J. Chem. Theory Comput. 12, 1148 (2016).

================================================================================
                                        WARNINGS
                       Please study these warnings very carefully!
================================================================================


WARNING: The basis set has functions with high angular momentum (Lmax>4).
         We might need to increase small grids for safety reasons and
         in general, DEFGRID3 is recommend for such cases.
  ===> : GRIDX1, TD-DFT and the CP-SCF AngGrids will be increased to at least 2


WARNING: Relativistic property calculations require picture change transformations!
  ===> : Setting %rel PictureChange = 2

NOTE: MaxCore=2000 MB was set to SCF,MP2,MDCI,CIPSI,MRCI,RASCI and CIS
      => If you want to overwrite this, your respective input block should be placed after the MaxCore statement
================================================================================

----- Orbital basis set information -----
Your calculation utilizes the basis: SARC2-DKH-QZVP
   D. Aravena, F. Neese and D. A. Pantazis, J. Chem. Theory Comput. 12, 1148 (2016).

================================================================================
                                        WARNINGS
                       Please study these warnings very carefully!
================================================================================


WARNING: The basis set has functions with high angular momentum (Lmax>4).
         We might need to increase small grids for safety reasons and
         in general, DEFGRID3 is recommend for such cases.
  ===> : GRIDX1, TD-DFT and the CP-SCF AngGrids will be increased to at least 2


CAS(DoSusceptibility), calculation requested: setting Magnetic origin to Nuclear Charge center
WARNING: In AILFT F2ff/F4ff remain undefined when considering only the HS Multiplicity block
         Be Careful with the results!
TIP:     If possible use in addition a LS Multiplicity Block

================================================================================
                                       INPUT FILE
================================================================================
NAME = cerium.inp
|  1> ! dkh
|  2> ! sarc2-dkh-qzvp
|  3> ! tightscf
|  4> ! nori
|  5> ! KDIIS SOSCF NOTRAH
|  6> ! pal4
|  7> %base "start"
|  8> 
|  9> %output
| 10>   Print[ P_ReducedOrbPopMO_M] 1
| 11> end
| 12> 
| 13> %maxcore 2000
| 14> 
| 15> *xyz 4 1
| 16> Ce    0.000000000000      0.000000000000      0.000000000000
| 17> Q -2 -2.372068721236      0.000000000000      1.836651840097
| 18> Q -2  2.372068721236      0.000000000000      1.836651840097
| 19> *
| 20> 
| 21> $new_job
| 22> 
| 23> ! dkh
| 24> ! sarc2-dkh-qzvp
| 25> ! tightscf 
| 26> ! nori
| 27> ! pal4
| 28> ! moread
| 29> %moinp "start.gbw"
| 30> 
| 31> %maxcore 2000
| 32> 
| 33> %rel
| 34>   method DKH 
| 35>   picturechange 2
| 36> end
| 37> 
| 38> %output
| 39>   Print[ P_ReducedOrbPopMO_M] 1
| 40> end
| 41> 
| 42> %casscf
| 43>   nel     1
| 44>   norb    7
| 45>   mult    2
| 46>   nroots  7
| 47>   maxiter 120
| 48>   printwf det
| 49>   actorbs forbs
| 50>   ci
| 51>    TPrintWF   0
| 52>   end
| 53>   rel
| 54>     tprint 0.00000
| 55>     dosoc true
| 56>     dosusceptibility true
| 57>     SUSTempMIN 1.0
| 58>     SUSTempMAX 300
| 59>   end
| 60>   aniso
| 61>     doaniso true
| 62>     quax 4
| 63>     mltp 2, 2, 2, 2, 2, 2, 2
| 64>     CRYS_element "Ce"
| 65>     CRYS_charge 3
| 66>     TINT 0, 300, 301
| 67>   end
| 68> end
| 69> 
| 70> *xyz 3 2
| 71> Ce    0.000000000000      0.000000000000      0.000000000000
| 72> Q -2 -2.372068721236      0.000000000000      1.836651840097
| 73> Q -2  2.372068721236      0.000000000000      1.836651840097
| 74> *
| 75> 
| 76> 
| 77>                          ****END OF INPUT****
================================================================================


                 $$$$$$$$$$$$$$$$$$$$$$$$$$$$$$$$$$$$$$$$$$$$$$ 
                 $ THERE ARE  2 JOBS TO BE PROCESSED THIS RUN $
                 $$$$$$$$$$$$$$$$$$$$$$$$$$$$$$$$$$$$$$$$$$$$$$ 




                 $$$$$$$$$$$$$$$$  JOB NUMBER  1 $$$$$$$$$$$$$$


                       ****************************
                       * Single Point Calculation *
                       ****************************

---------------------------------
CARTESIAN COORDINATES (ANGSTROEM)
---------------------------------
  Ce     0.000000    0.000000    0.000000
  Q     -2.372069    0.000000    1.836652
  Q      2.372069    0.000000    1.836652

----------------------------
CARTESIAN COORDINATES (A.U.)
----------------------------
  NO LB      ZA    FRAG     MASS         X           Y           Z
   0 Ce   58.0000    0   140.120    0.000000    0.000000    0.000000
   1 Q    -2.0000    0     0.000   -4.482560    0.000000    3.470769
   2 Q    -2.0000    0     0.000    4.482560    0.000000    3.470769

--------------------------------
INTERNAL COORDINATES (ANGSTROEM)
--------------------------------
 Ce     0   0   0     0.000000000000     0.00000000     0.00000000
 Q      1   0   0     3.000000000000     0.00000000     0.00000000
 Q      1   2   0     3.000000000000   104.50000000     0.00000000

---------------------------
INTERNAL COORDINATES (A.U.)
---------------------------
 Ce     0   0   0     0.000000000000     0.00000000     0.00000000
 Q      1   0   0     5.669178401763     0.00000000     0.00000000
 Q      1   2   0     5.669178401763   104.50000000     0.00000000

---------------------
BASIS SET INFORMATION
---------------------
There are 2 groups of distinct atoms

 Group   1 Type Ce  : 23s16p12d7f3g2h contracted to 18s12p9d4f3g2h pattern {611111111111111111/511111111111/411111111/4111/111/11}
 Group   2 Type Q,> :  contracted to  pattern {}

Atom   0Ce   basis set group =>   1
Atom   1Q    basis set group =>   2
Atom   2Q    basis set group =>   2


           ************************************************************
           *        Program running with 4 parallel MPI-processes     *
           *              working on a common directory               *
           ************************************************************
------------------------------------------------------------------------------
                             ORCA STARTUP CALCULATIONS
------------------------------------------------------------------------------
------------------------------------------------------------------------------
                   ___                                                        
                  /   \      - P O W E R E D   B Y -                         
                 /     \                                                     
                 |  |  |   _    _      __       _____    __    __             
                 |  |  |  | |  | |    /  \     |  _  \  |  |  /  |          
                  \  \/   | |  | |   /    \    | | | |  |  | /  /          
                 / \  \   | |__| |  /  /\  \   | |_| |  |  |/  /          
                |  |  |   |  __  | /  /__\  \  |    /   |      \           
                |  |  |   | |  | | |   __   |  |    \   |  |\   \          
                \     /   | |  | | |  |  |  |  | |\  \  |  | \   \       
                 \___/    |_|  |_| |__|  |__|  |_| \__\ |__|  \__/        
                                                                              
                      - O R C A' S   B I G   F R I E N D -                    
                                      &                                       
                       - I N T E G R A L  F E E D E R -                       
                                                                              
 v1 FN, 2020, v2 2021, v3 2022-2024                                           
------------------------------------------------------------------------------


----------------------
SHARK INTEGRAL PACKAGE
----------------------

Number of atoms                             ...      3
Number of basis functions                   ...    176
Number of shells                            ...     48
Maximum angular momentum                    ...      5
Integral batch strategy                     ... SHARK/LIBINT Hybrid
RI-J (if used) integral strategy            ... SPLIT-RIJ (Revised 2003 algorithm where possible)
Printlevel                                  ...      1
Contraction scheme used                     ... SEGMENTED contraction
Prescreening option                         ... SCHWARTZ
   Thresh                                   ... 2.500e-11
   Tcut                                     ... 2.500e-12
   Tpresel                                  ... 2.500e-12 
Coulomb Range Separation                    ... NOT USED
Exchange Range Separation                   ... NOT USED
Multipole approximations                    ... NOT USED
Finite Nucleus Model                        ... NOT USED
CABS basis                                  ... NOT available
Auxiliary Coulomb fitting basis             ... NOT available
Auxiliary J/K fitting basis                 ... NOT available
Auxiliary Correlation fitting basis         ... NOT available
Auxiliary 'external' fitting basis          ... NOT available

Checking pre-screening integrals            ... done (  0.0 sec) Dimension = 48
   => SHARK Basis and OBASIS are compatible. Storing Pre-screening
Shell pair information
Shell pair cut-off parameter TPreSel        ...   2.5e-12
Total number of shell pairs                 ...      1176
Shell pairs after pre-screening             ...      1174
Total number of primitive shell pairs       ...      2053
Primitive shell pairs kept                  ...      2041
          la=0 lb=0:    171 shell pairs
          la=1 lb=0:    216 shell pairs
          la=1 lb=1:     78 shell pairs
          la=2 lb=0:    162 shell pairs
          la=2 lb=1:    108 shell pairs
          la=2 lb=2:     45 shell pairs
          la=3 lb=0:     72 shell pairs
          la=3 lb=1:     48 shell pairs
          la=3 lb=2:     36 shell pairs
          la=3 lb=3:     10 shell pairs
          la=4 lb=0:     53 shell pairs
          la=4 lb=1:     36 shell pairs
          la=4 lb=2:     27 shell pairs
          la=4 lb=3:     12 shell pairs
          la=4 lb=4:      6 shell pairs
          la=5 lb=0:     35 shell pairs
          la=5 lb=1:     24 shell pairs
          la=5 lb=2:     18 shell pairs
          la=5 lb=3:      8 shell pairs
          la=5 lb=4:      6 shell pairs
          la=5 lb=5:      3 shell pairs

Checking whether 4 symmetric matrices of dimension 176 fit in memory
:Max Core in MB      =   2000.00
 MB in use           =      7.25
 MB left             =   1992.75
 MB needed           =      0.48
 Data fit in memory  = YES
Calculating Nuclear repulsion               ... done (  0.0 sec) ENN=    -40.476863852074 Eh

Diagonalization of the overlap matrix:
Smallest eigenvalue                        ... 1.265e-03
Time for diagonalization                   ...    0.001 sec
Threshold for overlap eigenvalues          ... 1.000e-07
Number of eigenvalues below threshold      ... 0
Time for construction of square roots      ...    0.001 sec
Total time needed                          ...    0.002 sec

-------------------
DFT GRID GENERATION
-------------------

General Integration Accuracy     IntAcc      ... 4.388
Radial Grid Type                 RadialGrid  ... OptM3 with GC (2021)
Angular Grid (max. ang.)         AngularGrid ... 4 (Lebedev-302)
Angular grid pruning method      GridPruning ... 4 (adaptive)
Weight generation scheme         WeightScheme... mBecke (2022)
Basis function cutoff            BFCut       ... 1.0000e-11
Integration weight cutoff        WCut        ... 1.0000e-14
Partially contracted basis set               ... off
Rotationally invariant grid construction     ... off
Angular grids for H and He will be reduced by one unit
Core-polarized basis detected: some atoms will have their core
                               angular grid increased.
Steep s-basis detected: some atoms will have their radial
                        grid points doubled.

Total number of grid points                  ...    29240
Total number of batches                      ...      458
Average number of points per batch           ...       63
Average number of grid points per atom       ...     9747
Grids setup in   0.2 sec
Initializing property integral containers    ... done (  0.0 sec)

SHARK setup successfully completed in   0.4 seconds

Maximum memory used throughout the entire STARTUP-calculation: 38.2 MB


           ************************************************************
           *        Program running with 4 parallel MPI-processes     *
           *              working on a common directory               *
           ************************************************************
------------------------------------------------------------------------------
                          ORCA RELATIVISTIC HAMILTONIAN
------------------------------------------------------------------------------

Relativistic Method            ... DKH
Order of DKH treatment         ...   2
Treatment of potential         ... V(e,N)
Eps parameter for DKH          ...   0.00000000010000
Nucleus model                  ... Point Nucleus
Speed of light used            ... 137.03598950000000


            ************************************************
            *        DOUGLAS-KROLL-HESS HAMILTONIAN        *
            *   Programmed by FN according to literature   *
            *        procedures. Special thanks to         *
            *       B.A. Hess, M. Reiher and A. Wolf       *
            *     University Erlangen-Nuernberg/Bonn       *
            ************************************************

Uncontracting the basis (first version)        ... done
Number of contracted basis functions           ...  176
Number of uncontracted basis functions         ...  229
Initializing the DKH file                      ... done
Calculating the relativistic integrals         ... done
Storing DKH matrices                           ... done
Computing the DKH transformation               ... done
Storing the transformation variables           ... done
Transforming V and pVp to p**2 space           ... done
First transformation of V and pVp              ... done
Second transformation of Veff                  ... done
Adding kinetic energy                          ... done
Back transformation of Veff to r-space         ... done
Recovering DKH matrices                        ... done
Recontracting the H-matrix (first version)     ... done
Computing the DKH correction to the H-matrix   ... done
Reading the original H-matrix                  ... done
Adding DKH correction to the H-matrix          ... done
Storing the new modified H-matrix              ... done

Maximum memory used throughout the entire REL-calculation: 41.5 MB


           ************************************************************
           *        Program running with 4 parallel MPI-processes     *
           *              working on a common directory               *
           ************************************************************
-------------------------------------------------------------------------------
                                 ORCA GUESS
                   Start orbitals & Density for SCF / CASSCF
-------------------------------------------------------------------------------

------------
SCF SETTINGS
------------
Hamiltonian:
 Ab initio Hamiltonian  Method          .... Hartree-Fock(GTOs)

Relativistic Settings:
 Scalar relativistic method             .... Douglas-Kroll-Hess
 Order of DKH procedure    Order        ....    2
 Mode of DKH-treatment                  .... V=V(e,N)
 Speed of light used       Velit        ....       137.035989
 Cutoff-constant           Eps          ....            1e-10 


General Settings:
 Integral files         IntName         .... start
 Hartree-Fock type      HFTyp           .... RHF
 Total Charge           Charge          ....    4
 Multiplicity           Mult            ....    1
 Number of Electrons    NEL             ....   54
 Basis Dimension        Dim             ....  176
 Nuclear Repulsion      ENuc            ....    -40.4768638521 Eh

Convergence Acceleration:
 AO-DIIS                CNVDIIS         .... off
 MO-DIIS                CNVKDIIS        .... on
   # of expansion vecs  DIISMaxEq       ....     5
   Initial Damping      KDIISInitialDamp....     1
   Tranformation alg.   KDIISTransform  ....     1
 Trust-Rad. Augm. Hess. CNVTRAH         .... off
 SOSCF                 CNVSOSCF           .... on
   Start iteration     SOSCFMaxIt         ....   150
   Startup grad/error  SOSCFStart         ....  0.003300
   Hessian update      SOSCFHessUp        .... L-BFGS
   Autom. constraints  SOSCFAutoConstrain .... off
 Level Shifting         CNVShift        .... off
 Zerner damping         CNVZerner       .... off
 Static damping         CNVDamp         .... off

SCF Procedure:
 Maximum # iterations   MaxIter         ....   125
 SCF integral mode      SCFMode         .... Direct
   Integral package                     .... SHARK and LIBINT hybrid scheme
 Reset frequency        DirectResetFreq ....    20
 Integral Threshold     Thresh          ....  2.500e-11 Eh
 Primitive CutOff       TCut            ....  2.500e-12 Eh

Convergence Tolerance:
 Convergence Check Mode ConvCheckMode   .... Total+1el-Energy
 Convergence forced     ConvForced      .... 0
 Energy Change          TolE            ....  1.000e-08 Eh
 1-El. energy change                    ....  1.000e-05 Eh
 Orbital Gradient       TolG            ....  1.000e-05
 Orbital Rotation angle TolX            ....  1.000e-05

------------------------------
INITIAL GUESS: MODEL POTENTIAL
------------------------------
Loading DKH relativistic densities                 ... done
Calculating cut-offs                               ... done
Initializing the effective Hamiltonian             ... done
Setting up the integral package (SHARK)            ... done
Starting the Coulomb interaction                   ... done (   0.0 sec)
Making the grid                                    ... done (   0.1 sec)
Mapping shells                                     ... done
Starting the XC term evaluation                    ... done (   0.0 sec)
Transforming the Hamiltonian                       ... done (   0.0 sec)
Diagonalizing the Hamiltonian                      ... done (   0.0 sec)
Back transforming the eigenvectors                 ... done (   0.0 sec)
Now organizing SCF variables                       ... done
                      ------------------
                      INITIAL GUESS DONE (   0.1 sec)
                      ------------------
             **** ENERGY FILE WAS UPDATED (start.en.tmp) ****
Finished Guess after   0.1 sec
Maximum memory used throughout the entire GUESS-calculation: 18.6 MB


           ************************************************************
           *        Program running with 4 parallel MPI-processes     *
           *              working on a common directory               *
           ************************************************************

-------------------------------------------------------------------------------------------
                                      ORCA LEAN-SCF
                              memory conserving SCF solver
-------------------------------------------------------------------------------------------

----------------------------------------D-I-I-S--------------------------------------------
Iteration    Energy (Eh)           Delta-E    RMSDP     MaxDP     MaxGrad   Damp  Time(sec)
-------------------------------------------------------------------------------------------
               ***  Starting incremental Fock matrix formation  ***
                          ****Turning on DIIS(Cayley)****
    1    -8852.1049588426321861     0.00e+00  3.20e-03  8.10e-02  1.62e+00  0.900   1.1
    2    -8852.2045060039708915    -9.95e-02  5.05e-03  1.30e-01  1.46e+00  0.800   1.0
    3    -8852.3337901743834664    -1.29e-01  8.53e-03  2.20e-01  1.17e+00  0.600   1.0
    4    -8852.4927106795676082    -1.59e-01  1.36e-02  3.59e-01  7.01e-01  0.000   1.0
    5    -8852.5847041539655038    -9.20e-02  4.05e-04  7.17e-03  4.50e-03  0.000   1.0
                              *** Initializing SOSCF ***
---------------------------------------S-O-S-C-F--------------------------------------
Iteration    Energy (Eh)           Delta-E    RMSDP     MaxDP     MaxGrad    Time(sec)
--------------------------------------------------------------------------------------
    6    -8852.5848614177684794    -1.57e-04  1.29e-04  2.79e-03  1.38e-03     1.0
               *** Restarting incremental Fock matrix formation ***
    7    -8852.5848829631813715    -2.15e-05  4.96e-05  6.84e-04  4.76e-04     1.0
    8    -8852.5848852546841954    -2.29e-06  1.62e-05  2.47e-04  1.46e-04     1.0
    9    -8852.5848855211897899    -2.67e-07  5.25e-06  1.17e-04  3.66e-05     0.9
   10    -8852.5848855456442834    -2.45e-08  1.69e-06  2.48e-05  1.17e-05     0.9
   11    -8852.5848855474669108    -1.82e-09  4.34e-07  1.10e-05  5.26e-06     0.9
                 **** Energy Check signals convergence ****

               *****************************************************
               *                     SUCCESS                       *
               *           SCF CONVERGED AFTER  11 CYCLES          *
               *****************************************************

             **** ENERGY FILE WAS UPDATED (start.en.tmp) ****

----------------
TOTAL SCF ENERGY
----------------

Total Energy       :      -8852.58488554784162 Eh         -240891.08140 eV

Components:
Nuclear Repulsion  :        -40.47686385207407 Eh           -1101.43146 eV
Electronic Energy  :      -8812.10802169576709 Eh         -239789.64994 eV
One Electron Energy:     -11942.87067311573810 Eh         -324982.03278 eV
Two Electron Energy:       3130.76265141997101 Eh           85192.38284 eV

Virial components:
Potential Energy   :     -19584.57680895258818 Eh         -532923.42828 eV
Kinetic Energy     :      10731.99192340474656 Eh          292032.34687 eV
Virial Ratio       :          1.82487807936584

---------------
SCF CONVERGENCE
---------------

  Last Energy change         ...    1.8226e-09  Tolerance :   1.0000e-08
  Last MAX-Density change    ...    1.0963e-05  Tolerance :   1.0000e-07
  Last RMS-Density change    ...    4.3437e-07  Tolerance :   5.0000e-09
  Last Orbital Gradient      ...    5.2563e-06  Tolerance :   1.0000e-05
  Last Orbital Rotation      ...    2.0350e-06  Tolerance :   1.0000e-05


----------------
ORBITAL ENERGIES
----------------

  NO   OCC          E(Eh)            E(eV) 
   0   2.0000   -1493.094581    -40629.1691 
   1   2.0000    -244.008044     -6639.7964 
   2   2.0000    -218.708932     -5951.3726 
   3   2.0000    -218.708931     -5951.3726 
   4   2.0000    -218.708900     -5951.3717 
   5   2.0000     -55.059102     -1498.2343 
   6   2.0000     -46.782359     -1273.0127 
   7   2.0000     -46.782013     -1273.0033 
   8   2.0000     -46.781647     -1272.9933 
   9   2.0000     -34.888062      -949.3524 
  10   2.0000     -34.888037      -949.3517 
  11   2.0000     -34.887770      -949.3445 
  12   2.0000     -34.887553      -949.3386 
  13   2.0000     -34.887507      -949.3373 
  14   2.0000     -12.624974      -343.5430 
  15   2.0000      -9.795455      -266.5479 
  16   2.0000      -9.794539      -266.5230 
  17   2.0000      -9.794009      -266.5085 
  18   2.0000      -5.562351      -151.3593 
  19   2.0000      -5.562202      -151.3552 
  20   2.0000      -5.561583      -151.3384 
  21   2.0000      -5.560599      -151.3116 
  22   2.0000      -5.560595      -151.3115 
  23   2.0000      -2.589191       -70.4555 
  24   2.0000      -1.742390       -47.4128 
  25   2.0000      -1.728911       -47.0461 
  26   2.0000      -1.722448       -46.8702 
  27   0.0000      -0.493942       -13.4408 
  28   0.0000      -0.493940       -13.4408 
  29   0.0000      -0.489809       -13.3284 
  30   0.0000      -0.489696       -13.3253 
  31   0.0000      -0.486615       -13.2415 
  32   0.0000      -0.486602       -13.2411 
  33   0.0000      -0.485351       -13.2071 
  34   0.0000      -0.392363       -10.6767 
  35   0.0000      -0.391792       -10.6612 
  36   0.0000      -0.376430       -10.2432 
  37   0.0000      -0.368930       -10.0391 
*Only the first 10 virtual orbitals were printed.

                    ********************************
                    * MULLIKEN POPULATION ANALYSIS *
                    ********************************

-----------------------
MULLIKEN ATOMIC CHARGES
-----------------------
   0 Ce:    4.000000
   1 Q :   -2.000000
   2 Q :   -2.000000
Sum of atomic charges:    0.0000000

--------------------------------
MULLIKEN REDUCED ORBITAL CHARGES
--------------------------------
  0 Ces       :    10.001172  s :    10.001172
      pz      :     7.995222  p :    23.988305
      px      :     7.995562
      py      :     7.997521
      dz2     :     4.003181  d :    20.009822
      dxz     :     4.004174
      dyz     :     4.002282
      dx2y2   :     4.000188
      dxy     :     3.999997
      f0      :     0.000012  f :     0.000695
      f+1     :     0.000009
      f-1     :     0.000016
      f+2     :     0.000223
      f-2     :     0.000003
      f+3     :     0.000252
      f-3     :     0.000180
      g0      :     0.000001  g :     0.000006
      g+1     :     0.000001
      g-1     :     0.000000
      g+2     :     0.000002
      g-2     :     0.000000
      g+3     :     0.000001
      g-3     :     0.000001
      g+4     :     0.000000
      g-4     :     0.000000
      h0      :     0.000000  h :     0.000000
      h+1     :     0.000000
      h-1     :     0.000000
      h+2     :     0.000000
      h-2     :     0.000000
      h+3     :     0.000000
      h-3     :     0.000000
      h+4     :     0.000000
      h-4     :     0.000000
      h+5     :     0.000000
      h-5     :     0.000000

  1 Q 

  2 Q 


-------------------------------------------
MULLIKEN REDUCED ORBITAL POPULATIONS PER MO
--------------------------------------------
THRESHOLD FOR PRINTING IS 0.1%%
                      0         1         2         3         4         5   
                 -1493.09458 -244.00804 -218.70893 -218.70893 -218.70890 -55.05910
                   2.00000   2.00000   2.00000   2.00000   2.00000   2.00000
                  --------  --------  --------  --------  --------  --------
 0 Ce s             100.0     100.0       0.0       0.0       0.0     100.0
 0 Ce pz              0.0       0.0     100.0       0.0       0.0       0.0
 0 Ce px              0.0       0.0       0.0     100.0       0.0       0.0
 0 Ce py              0.0       0.0       0.0       0.0     100.0       0.0

                      6         7         8         9        10        11   
                 -46.78236 -46.78201 -46.78165 -34.88806 -34.88804 -34.88777
                   2.00000   2.00000   2.00000   2.00000   2.00000   2.00000
                  --------  --------  --------  --------  --------  --------
 0 Ce pz              0.0     100.0       0.0       0.0       0.0       0.0
 0 Ce px              0.0       0.0     100.0       0.0       0.0       0.0
 0 Ce py            100.0       0.0       0.0       0.0       0.0       0.0
 0 Ce dz2             0.0       0.0       0.0      54.2       0.0       0.0
 0 Ce dyz             0.0       0.0       0.0       0.0     100.0       0.0
 0 Ce dx2y2           0.0       0.0       0.0      45.8       0.0       0.0
 0 Ce dxy             0.0       0.0       0.0       0.0       0.0     100.0

                     12        13        14        15        16        17   
                 -34.88755 -34.88751 -12.62497  -9.79546  -9.79454  -9.79401
                   2.00000   2.00000   2.00000   2.00000   2.00000   2.00000
                  --------  --------  --------  --------  --------  --------
 0 Ce s               0.0       0.0     100.0       0.0       0.0       0.0
 0 Ce pz              0.0       0.0       0.0       0.0     100.0       0.0
 0 Ce px              0.0       0.0       0.0       0.0       0.0     100.0
 0 Ce py              0.0       0.0       0.0     100.0       0.0       0.0
 0 Ce dz2             0.0      45.8       0.0       0.0       0.0       0.0
 0 Ce dxz           100.0       0.0       0.0       0.0       0.0       0.0
 0 Ce dx2y2           0.0      54.2       0.0       0.0       0.0       0.0

                     18        19        20        21        22        23   
                  -5.56235  -5.56220  -5.56158  -5.56060  -5.56059  -2.58919
                   2.00000   2.00000   2.00000   2.00000   2.00000   2.00000
                  --------  --------  --------  --------  --------  --------
 0 Ce s               0.0       0.0       0.0       0.0       0.0      99.8
 0 Ce pz              0.0       0.0       0.0       0.0       0.0       0.2
 0 Ce dz2            45.7       0.0       0.0      54.3       0.0       0.0
 0 Ce dxz             0.0       0.0       0.0       0.0     100.0       0.0
 0 Ce dyz             0.0     100.0       0.0       0.0       0.0       0.0
 0 Ce dx2y2          54.3       0.0       0.0      45.7       0.0       0.0
 0 Ce dxy             0.0       0.0     100.0       0.0       0.0       0.0

                     24        25        26        27        28        29   
                  -1.74239  -1.72891  -1.72245  -0.49394  -0.49394  -0.48981
                   2.00000   2.00000   2.00000   0.00000   0.00000   0.00000
                  --------  --------  --------  --------  --------  --------
 0 Ce s               0.0       0.3       0.0       0.0       0.0       0.0
 0 Ce pz              0.0      99.6       0.0       0.0       0.0       0.0
 0 Ce px              0.0       0.0      99.8       0.0       0.0       0.0
 0 Ce py             99.9       0.0       0.0       0.0       0.0       0.0
 0 Ce dz2             0.0       0.2       0.0       0.0       2.9       0.0
 0 Ce dxz             0.0       0.0       0.2       0.0       0.0       0.0
 0 Ce dyz             0.1       0.0       0.0       4.0       0.0       0.0
 0 Ce dx2y2           0.0       0.0       0.0       0.0       1.2       0.0
 0 Ce dxy             0.0       0.0       0.0       0.0       0.0       3.1
 0 Ce f0              0.0       0.0       0.0       0.0      57.6       0.0
 0 Ce f-1             0.0       0.0       0.0      89.2       0.0       0.0
 0 Ce f+2             0.0       0.0       0.0       0.0      38.3       0.0
 0 Ce f-2             0.0       0.0       0.0       0.0       0.0      96.9
 0 Ce f-3             0.0       0.0       0.0       6.8       0.0       0.0

                     30        31        32        33        34        35   
                  -0.48970  -0.48662  -0.48660  -0.48535  -0.39236  -0.39179
                   0.00000   0.00000   0.00000   0.00000   0.00000   0.00000
                  --------  --------  --------  --------  --------  --------
 0 Ce s               0.0       0.0       0.0       0.0       0.6       0.0
 0 Ce pz              0.0       0.0       0.1       0.0       1.5       0.0
 0 Ce py              0.0       0.0       0.0       0.0       0.0       2.5
 0 Ce dz2             0.0       0.0       1.2       0.0      50.3       0.0
 0 Ce dxz             2.6       0.0       0.0       1.1       0.0       0.0
 0 Ce dyz             0.0       0.1       0.0       0.0       0.0      92.8
 0 Ce dx2y2           0.0       0.0       2.0       0.0      43.2       0.0
 0 Ce f0              0.0       0.0      38.2       0.0       2.4       0.0
 0 Ce f+1            57.7       0.0       0.0      38.6       0.0       0.0
 0 Ce f-1             0.0       6.7       0.0       0.0       0.0       4.6
 0 Ce f+2             0.0       0.0      58.4       0.0       2.0       0.0
 0 Ce f+3            39.6       0.0       0.0      60.3       0.0       0.0
 0 Ce f-3             0.0      93.2       0.0       0.0       0.0       0.1

                     36        37        38        39        40        41   
                  -0.37643  -0.36893  -0.36038  -0.29312  -0.15482  -0.09361
                   0.00000   0.00000   0.00000   0.00000   0.00000   0.00000
                  --------  --------  --------  --------  --------  --------
 0 Ce s               0.0      10.3       0.0      63.5       0.0       0.0
 0 Ce pz              0.0       4.5       0.0      20.5       0.0       0.0
 0 Ce px              0.0       0.0       4.5       0.0       0.0      70.7
 0 Ce py              0.0       0.0       0.0       0.0      86.0       0.0
 0 Ce dz2             0.0      37.1       0.0       7.0       0.0       0.0
 0 Ce dxz             0.0       0.0      90.9       0.0       0.0      28.9
 0 Ce dyz             0.0       0.0       0.0       0.0      13.7       0.0
 0 Ce dx2y2           0.0      44.4       0.0       8.4       0.0       0.0
 0 Ce dxy            96.4       0.0       0.0       0.0       0.0       0.0
 0 Ce f0              0.0       2.2       0.0       0.3       0.0       0.0
 0 Ce f+1             0.0       0.0       4.5       0.0       0.0       0.0
 0 Ce f+2             0.0       1.5       0.0       0.3       0.0       0.0
 0 Ce f-2             3.6       0.0       0.0       0.0       0.0       0.0
 0 Ce f+3             0.0       0.0       0.0       0.0       0.0       0.4
 0 Ce f-3             0.0       0.0       0.0       0.0       0.2       0.0

                     42        43        44        45        46        47   
                  -0.09306  -0.03480  -0.00502   0.04093   0.04240   0.06835
                   0.00000   0.00000   0.00000   0.00000   0.00000   0.00000
                  --------  --------  --------  --------  --------  --------
 0 Ce s              33.4      40.2       0.0       0.0      22.9       0.0
 0 Ce pz             45.4      33.9       0.0       0.0      38.1       0.0
 0 Ce px              0.0       0.0       0.0      82.8       0.0       0.0
 0 Ce py              0.0       0.0      76.0       0.0       0.0       0.0
 0 Ce dz2            17.9       9.2       0.0       0.0      16.2       0.0
 0 Ce dxz             0.0       0.0       0.0      16.9       0.0       0.0
 0 Ce dyz             0.0       0.0      23.8       0.0       0.0       0.0
 0 Ce dx2y2           3.1      16.5       0.0       0.0      21.7       0.0
 0 Ce dxy             0.0       0.0       0.0       0.0       0.0      99.4
 0 Ce f+2             0.3       0.1       0.0       0.0       1.1       0.0
 0 Ce f-2             0.0       0.0       0.0       0.0       0.0       0.6
 0 Ce f+3             0.0       0.0       0.0       0.3       0.0       0.0
 0 Ce f-3             0.0       0.0       0.2       0.0       0.0       0.0

                     48        49        50        51        52        53   
                   0.07229   0.11373   0.15786   0.17727   0.17949   0.21300
                   0.00000   0.00000   0.00000   0.00000   0.00000   0.00000
                  --------  --------  --------  --------  --------  --------
 0 Ce s               0.0      10.6      14.9      47.9       0.0       0.0
 0 Ce pz              0.0      35.6      34.2      16.9       0.0       0.0
 0 Ce px              0.0       0.0       0.0       0.0      65.6       0.0
 0 Ce py             38.2       0.0       0.0       0.0       0.0      86.6
 0 Ce dz2             0.0      43.0       6.0      20.2       0.0       0.0
 0 Ce dxz             0.0       0.0       0.0       0.0      31.6       0.0
 0 Ce dyz            61.1       0.0       0.0       0.0       0.0      12.7
 0 Ce dx2y2           0.0      10.2      42.2      13.3       0.0       0.0
 0 Ce f0              0.0       0.4       0.2       0.9       0.0       0.0
 0 Ce f+1             0.0       0.0       0.0       0.0       1.0       0.0
 0 Ce f-1             0.6       0.0       0.0       0.0       0.0       0.6
 0 Ce f+2             0.0       0.2       2.5       0.8       0.0       0.0
 0 Ce f+3             0.0       0.0       0.0       0.0       1.8       0.0
 0 Ce f-3             0.2       0.0       0.0       0.0       0.0       0.1

                     54        55        56        57        58        59   
                   0.24850   0.25684   0.27735   0.29584   0.32323   0.36673
                   0.00000   0.00000   0.00000   0.00000   0.00000   0.00000
                  --------  --------  --------  --------  --------  --------
 0 Ce s               0.0       0.0      11.0       2.0       0.0       0.0
 0 Ce pz              0.0       0.0      13.5       1.3       0.0       0.0
 0 Ce px              0.0       0.0       0.0       0.0       5.6       0.0
 0 Ce py              8.9       0.0       0.0       0.0       0.0       1.0
 0 Ce dz2             0.0       0.0      37.6      26.0       0.0       0.0
 0 Ce dxz             0.0       0.0       0.0       0.0      38.6       0.0
 0 Ce dyz            77.7       0.0       0.0       0.0       0.0      13.7
 0 Ce dx2y2           0.0       0.0      14.6      54.6       0.0       0.0
 0 Ce dxy             0.0      89.1       0.0       0.0       0.0       0.0
 0 Ce f0              0.0       0.0       9.1      11.2       0.0       0.0
 0 Ce f+1             0.0       0.0       0.0       0.0      32.0       0.0
 0 Ce f-1            11.6       0.0       0.0       0.0       0.0      84.1
 0 Ce f+2             0.0       0.0      14.2       4.9       0.0       0.0
 0 Ce f-2             0.0      10.9       0.0       0.0       0.0       0.0
 0 Ce f+3             0.0       0.0       0.0       0.0      23.7       0.0
 0 Ce f-3             1.9       0.0       0.0       0.0       0.0       1.3

                     60        61        62        63        64        65   
                   0.37214   0.37566   0.38911   0.39532   0.42321   0.43097
                   0.00000   0.00000   0.00000   0.00000   0.00000   0.00000
                  --------  --------  --------  --------  --------  --------
 0 Ce s               0.0       1.8       0.0       0.0      25.6       0.0
 0 Ce pz              0.0       8.2       0.0       0.0      35.2       0.0
 0 Ce px              0.0       0.0       2.6       0.0       0.0      50.2
 0 Ce py              0.9       0.0       0.0       0.0       0.0       0.0
 0 Ce dz2             0.0      18.8       0.0       0.0       5.4       0.0
 0 Ce dxz             0.0       0.0       3.4       0.0       0.0      41.4
 0 Ce dyz             0.5       0.0       0.0       0.0       0.0       0.0
 0 Ce dx2y2           0.0       1.7       0.0       0.0       4.6       0.0
 0 Ce dxy             0.0       0.0       0.0      12.1       0.0       0.0
 0 Ce f0              0.0      44.2       0.0       0.0      19.3       0.0
 0 Ce f+1             0.0       0.0      23.5       0.0       0.0       7.6
 0 Ce f-1             2.5       0.0       0.0       0.0       0.0       0.0
 0 Ce f+2             0.0      25.2       0.0       0.0       9.8       0.0
 0 Ce f-2             0.0       0.0       0.0      87.9       0.0       0.0
 0 Ce f+3             0.0       0.0      70.5       0.0       0.0       0.9
 0 Ce f-3            96.2       0.0       0.0       0.0       0.0       0.0

                     66        67        68        69        70        71   
                   0.48530   0.50832   1.03183   1.03822   1.05207   1.08893
                   0.00000   0.00000   0.00000   0.00000   0.00000   0.00000
                  --------  --------  --------  --------  --------  --------
 0 Ce s              14.8       0.0       0.0       2.9       0.0       0.9
 0 Ce pz             10.9       0.0       0.0      13.9       0.0       0.0
 0 Ce px              0.0      17.4       0.0       0.0       0.0       0.0
 0 Ce py              0.0       0.0      12.0       0.0       0.0       0.0
 0 Ce dz2             1.2       0.0       0.0      58.8       0.0      30.2
 0 Ce dxz             0.0      45.0       0.0       0.0       0.0       0.0
 0 Ce dyz             0.0       0.0      87.8       0.0       0.0       0.0
 0 Ce dx2y2          18.9       0.0       0.0      24.3       0.0      68.7
 0 Ce dxy             0.0       0.0       0.0       0.0      99.8       0.0
 0 Ce f0             13.7       0.0       0.0       0.2       0.0       0.1
 0 Ce f+1             0.0      35.2       0.0       0.0       0.0       0.0
 0 Ce f-1             0.0       0.0       0.2       0.0       0.0       0.0
 0 Ce f+2            40.5       0.0       0.0       0.1       0.0       0.1
 0 Ce f-2             0.0       0.0       0.0       0.0       0.2       0.0
 0 Ce f+3             0.0       2.4       0.0       0.0       0.0       0.0

                     72        73        74        75        76        77   
                   1.09587   1.11544   1.12364   1.19731   1.31175   1.66642
                   0.00000   0.00000   0.00000   0.00000   0.00000   0.00000
                  --------  --------  --------  --------  --------  --------
 0 Ce s               0.0       0.0       9.4       0.0      87.0       0.0
 0 Ce pz              0.0       0.0      74.6       0.0      11.9       0.0
 0 Ce px              0.0      38.3       0.0      62.2       0.0       0.0
 0 Ce py             88.0       0.0       0.0       0.0       0.0       0.0
 0 Ce dz2             0.0       0.0      10.4       0.0       0.1       0.0
 0 Ce dxz             0.0      61.5       0.0      37.6       0.0       0.0
 0 Ce dyz            12.0       0.0       0.0       0.0       0.0       0.1
 0 Ce dx2y2           0.0       0.0       5.5       0.0       0.7       0.0
 0 Ce f+1             0.0       0.2       0.0       0.0       0.0       0.0
 0 Ce f-1             0.0       0.0       0.0       0.0       0.0      87.9
 0 Ce f+2             0.0       0.0       0.1       0.0       0.4       0.0
 0 Ce f+3             0.0       0.0       0.0       0.2       0.0       0.0
 0 Ce f-3             0.0       0.0       0.0       0.0       0.0      11.9

                     78        79        80        81        82        83   
                   1.66729   1.67841   1.67920   1.68207   1.70086   1.70984
                   0.00000   0.00000   0.00000   0.00000   0.00000   0.00000
                  --------  --------  --------  --------  --------  --------
 0 Ce s               0.0       0.0       0.0       0.0       0.0       0.3
 0 Ce pz              0.1       0.0       0.0       0.0       0.0       0.2
 0 Ce px              0.0       0.0       0.2       0.0       0.0       0.0
 0 Ce dz2             0.1       0.0       0.0       0.0       0.0       0.1
 0 Ce dxz             0.0       0.0       0.1       0.0       0.3       0.0
 0 Ce dx2y2           0.0       0.0       0.0       0.0       0.0       0.2
 0 Ce dxy             0.0       0.0       0.0       0.1       0.0       0.0
 0 Ce f0             63.3       0.0       0.0       0.0       0.0      36.4
 0 Ce f+1             0.0       0.0       2.3       0.0      97.3       0.0
 0 Ce f-1             0.0      11.9       0.0       0.0       0.0       0.0
 0 Ce f+2            36.5       0.0       0.0       0.0       0.0      62.8
 0 Ce f-2             0.0       0.0       0.0      99.8       0.0       0.0
 0 Ce f+3             0.0       0.0      97.4       0.0       2.3       0.0
 0 Ce f-3             0.0      88.0       0.0       0.0       0.0       0.0

                     84        85        86        87        88        89   
                   2.63703   2.63707   2.64044   2.64162   2.64172   2.64490
                   0.00000   0.00000   0.00000   0.00000   0.00000   0.00000
                  --------  --------  --------  --------  --------  --------
 0 Ce g0             44.3       0.0       0.0       0.0       9.3       0.0
 0 Ce g+1             0.0       0.0       0.0      20.2       0.0       0.0
 0 Ce g-1             0.0      78.1       0.0       0.0       0.0       0.0
 0 Ce g+2            47.8       0.0       0.0       0.0       0.8       0.0
 0 Ce g-2             0.0       0.0      25.2       0.0       0.0      74.8
 0 Ce g+3             0.0       0.0       0.0      79.8       0.0       0.0
 0 Ce g-3             0.0      21.9       0.0       0.0       0.0       0.0
 0 Ce g+4             7.9       0.0       0.0       0.0      89.9       0.0
 0 Ce g-4             0.0       0.0      74.8       0.0       0.0      25.2

                     90        91        92        93        94        95   
                   2.64533   2.65135   2.65136   4.00112   4.00245   4.00649
                   0.00000   0.00000   0.00000   0.00000   0.00000   0.00000
                  --------  --------  --------  --------  --------  --------
 0 Ce dz2             0.0       0.0       0.0       0.0      57.9       0.0
 0 Ce dyz             0.0       0.0       0.0     100.0       0.0       0.0
 0 Ce dx2y2           0.0       0.0       0.0       0.0      42.1       0.0
 0 Ce dxy             0.0       0.0       0.0       0.0       0.0     100.0
 0 Ce g0              0.0       0.0      46.3       0.0       0.0       0.0
 0 Ce g+1             0.0      79.8       0.0       0.0       0.0       0.0
 0 Ce g-1            21.9       0.0       0.0       0.0       0.0       0.0
 0 Ce g+2             0.0       0.0      51.4       0.0       0.0       0.0
 0 Ce g+3             0.0      20.2       0.0       0.0       0.0       0.0
 0 Ce g-3            78.1       0.0       0.0       0.0       0.0       0.0
 0 Ce g+4             0.0       0.0       2.3       0.0       0.0       0.0

                     96        97        98        99       100       101   
                   4.01799   4.02731   5.59351   5.59369   5.59713   5.59808
                   0.00000   0.00000   0.00000   0.00000   0.00000   0.00000
                  --------  --------  --------  --------  --------  --------
 0 Ce px              0.0       0.0       0.0       0.0       0.1       0.0
 0 Ce dz2            42.1       0.0       0.0       0.0       0.0       0.0
 0 Ce dxz             0.0      99.9       0.0       0.0       0.0       0.0
 0 Ce dx2y2          57.9       0.0       0.0       0.0       0.0       0.0
 0 Ce f0              0.0       0.0       0.0      57.3       0.0       0.0
 0 Ce f+1             0.0       0.0       0.0       0.0       6.5       0.0
 0 Ce f-1             0.0       0.0      82.9       0.0       0.0      17.1
 0 Ce f+2             0.0       0.0       0.0      42.7       0.0       0.0
 0 Ce f+3             0.0       0.0       0.0       0.0      93.3       0.0
 0 Ce f-3             0.0       0.0      17.1       0.0       0.0      82.9

                    102       103       104       105       106       107   
                   5.59887   5.60483   5.60628   5.63918   5.65007   5.65715
                   0.00000   0.00000   0.00000   0.00000   0.00000   0.00000
                  --------  --------  --------  --------  --------  --------
 0 Ce pz              0.0       0.0       0.2       0.0      99.7       0.0
 0 Ce px              0.0       0.0       0.0       0.0       0.0      99.8
 0 Ce py              0.0       0.0       0.0      99.9       0.0       0.0
 0 Ce f0              0.0       0.0      42.7       0.0       0.0       0.0
 0 Ce f+1             0.0      93.4       0.0       0.0       0.0       0.0
 0 Ce f+2             0.0       0.0      57.1       0.0       0.2       0.0
 0 Ce f-2           100.0       0.0       0.0       0.0       0.0       0.0
 0 Ce f+3             0.0       6.5       0.0       0.0       0.0       0.1

                    108       109       110       111       112       113   
                   7.22083  12.15848  12.15849  12.15918  12.15932  12.15951
                   0.00000   0.00000   0.00000   0.00000   0.00000   0.00000
                  --------  --------  --------  --------  --------  --------
 0 Ce s             100.0       0.0       0.0       0.0       0.0       0.0
 0 Ce g0              0.0      42.9       0.0       0.0       0.0      11.3
 0 Ce g+1             0.0       0.0       0.0       0.0      21.1       0.0
 0 Ce g-1             0.0       0.0      76.5       0.0       0.0       0.0
 0 Ce g+2             0.0      49.1       0.0       0.0       0.0       0.4
 0 Ce g-2             0.0       0.0       0.0      36.3       0.0       0.0
 0 Ce g+3             0.0       0.0       0.0       0.0      78.9       0.0
 0 Ce g-3             0.0       0.0      23.5       0.0       0.0       0.0
 0 Ce g+4             0.0       7.9       0.0       0.0       0.0      88.3
 0 Ce g-4             0.0       0.0       0.0      63.7       0.0       0.0

                    114       115       116       117       118       119   
                  12.16004  12.16005  12.16104  12.16104  15.06171  15.06178
                   0.00000   0.00000   0.00000   0.00000   0.00000   0.00000
                  --------  --------  --------  --------  --------  --------
 0 Ce dz2             0.0       0.0       0.0       0.0       0.0      52.6
 0 Ce dyz             0.0       0.0       0.0       0.0     100.0       0.0
 0 Ce dx2y2           0.0       0.0       0.0       0.0       0.0      47.4
 0 Ce g0              0.0       0.0      45.7       0.0       0.0       0.0
 0 Ce g+1             0.0       0.0       0.0      78.9       0.0       0.0
 0 Ce g-1             0.0      23.5       0.0       0.0       0.0       0.0
 0 Ce g+2             0.0       0.0      50.5       0.0       0.0       0.0
 0 Ce g-2            63.7       0.0       0.0       0.0       0.0       0.0
 0 Ce g+3             0.0       0.0       0.0      21.1       0.0       0.0
 0 Ce g-3             0.0      76.5       0.0       0.0       0.0       0.0
 0 Ce g+4             0.0       0.0       3.8       0.0       0.0       0.0
 0 Ce g-4            36.3       0.0       0.0       0.0       0.0       0.0

                    120       121       122       123       124       125   
                  15.06315  15.06591  15.06739  15.25831  15.25831  15.25881
                   0.00000   0.00000   0.00000   0.00000   0.00000   0.00000
                  --------  --------  --------  --------  --------  --------
 0 Ce dz2             0.0      47.4       0.0       0.0       0.0       0.0
 0 Ce dxz             0.0       0.0     100.0       0.0       0.0       0.0
 0 Ce dx2y2           0.0      52.6       0.0       0.0       0.0       0.0
 0 Ce dxy           100.0       0.0       0.0       0.0       0.0       0.0
 0 Ce h0              0.0       0.0       0.0       0.0      38.2       0.0
 0 Ce h+1             0.0       0.0       0.0       0.0       0.0       9.5
 0 Ce h-1             0.0       0.0       0.0      67.9       0.0       0.0
 0 Ce h+2             0.0       0.0       0.0       0.0      49.7       0.0
 0 Ce h+3             0.0       0.0       0.0       0.0       0.0      46.4
 0 Ce h-3             0.0       0.0       0.0      28.3       0.0       0.0
 0 Ce h+4             0.0       0.0       0.0       0.0      12.1       0.0
 0 Ce h+5             0.0       0.0       0.0       0.0       0.0      44.0
 0 Ce h-5             0.0       0.0       0.0       3.8       0.0       0.0

                    126       127       128       129       130       131   
                  15.25887  15.25906  15.25933  15.25934  15.25988  15.25988
                   0.00000   0.00000   0.00000   0.00000   0.00000   0.00000
                  --------  --------  --------  --------  --------  --------
 0 Ce h0              0.0       0.0      19.0       0.0       0.0       0.0
 0 Ce h+1             0.0       0.0       0.0      15.4       0.0       0.0
 0 Ce h-1             0.0      11.4       0.0       0.0      20.7       0.0
 0 Ce h+2             0.0       0.0       0.4       0.0       0.0       0.0
 0 Ce h-2            42.6       0.0       0.0       0.0       0.0      57.4
 0 Ce h+3             0.0       0.0       0.0      29.6       0.0       0.0
 0 Ce h-3             0.0       3.4       0.0       0.0      68.3       0.0
 0 Ce h+4             0.0       0.0      80.6       0.0       0.0       0.0
 0 Ce h-4            57.4       0.0       0.0       0.0       0.0      42.6
 0 Ce h+5             0.0       0.0       0.0      55.0       0.0       0.0
 0 Ce h-5             0.0      85.1       0.0       0.0      11.1       0.0

                    132       133       134       135       136       137   
                  15.26063  15.26063  29.29617  29.29822  29.29955  41.46120
                   0.00000   0.00000   0.00000   0.00000   0.00000   0.00000
                  --------  --------  --------  --------  --------  --------
 0 Ce s               0.0       0.0       0.0       0.0       0.0     100.0
 0 Ce pz              0.0       0.0       0.0     100.0       0.0       0.0
 0 Ce px              0.0       0.0       0.0       0.0     100.0       0.0
 0 Ce py              0.0       0.0     100.0       0.0       0.0       0.0
 0 Ce h0              0.0      42.8       0.0       0.0       0.0       0.0
 0 Ce h+1            75.1       0.0       0.0       0.0       0.0       0.0
 0 Ce h+2             0.0      50.0       0.0       0.0       0.0       0.0
 0 Ce h+3            23.9       0.0       0.0       0.0       0.0       0.0
 0 Ce h+4             0.0       7.3       0.0       0.0       0.0       0.0
 0 Ce h+5             1.0       0.0       0.0       0.0       0.0       0.0

                    138       139       140       141       142       143   
                  43.97422  43.97422  43.97476  43.97478  43.97506  43.97522
                   0.00000   0.00000   0.00000   0.00000   0.00000   0.00000
                  --------  --------  --------  --------  --------  --------
 0 Ce h0              0.0      40.4       0.0       0.0       0.0      19.1
 0 Ce h+1             0.0       0.0      14.3       0.0       0.0       0.0
 0 Ce h-1            71.5       0.0       0.0       0.0      11.6       0.0
 0 Ce h+2             0.0      49.8       0.0       0.0       0.0       0.0
 0 Ce h-2             0.0       0.0       0.0      48.8       0.0       0.0
 0 Ce h+3             0.0       0.0      57.9       0.0       0.0       0.0
 0 Ce h-3            26.3       0.0       0.0       0.0       9.2       0.0
 0 Ce h+4             0.0       9.8       0.0       0.0       0.0      80.9
 0 Ce h-4             0.0       0.0       0.0      51.2       0.0       0.0
 0 Ce h+5             0.0       0.0      27.8       0.0       0.0       0.0
 0 Ce h-5             2.2       0.0       0.0       0.0      79.2       0.0

                    144       145       146       147       148       149   
                  43.97529  43.97568  43.97568  43.97629  43.97629  57.12298
                   0.00000   0.00000   0.00000   0.00000   0.00000   0.00000
                  --------  --------  --------  --------  --------  --------
 0 Ce dz2             0.0       0.0       0.0       0.0       0.0      52.1
 0 Ce dx2y2           0.0       0.0       0.0       0.0       0.0      47.9
 0 Ce h0              0.0       0.0       0.0       0.0      40.5       0.0
 0 Ce h+1            13.6       0.0       0.0      72.1       0.0       0.0
 0 Ce h-1             0.0       0.0      16.9       0.0       0.0       0.0
 0 Ce h+2             0.0       0.0       0.0       0.0      50.2       0.0
 0 Ce h-2             0.0      51.2       0.0       0.0       0.0       0.0
 0 Ce h+3            15.9       0.0       0.0      26.2       0.0       0.0
 0 Ce h-3             0.0       0.0      64.6       0.0       0.0       0.0
 0 Ce h+4             0.0       0.0       0.0       0.0       9.3       0.0
 0 Ce h-4             0.0      48.8       0.0       0.0       0.0       0.0
 0 Ce h+5            70.5       0.0       0.0       1.7       0.0       0.0
 0 Ce h-5             0.0       0.0      18.6       0.0       0.0       0.0

                    150       151       152       153       154       155   
                  57.12300  57.12352  57.12428  57.12447  65.53193  65.53193
                   0.00000   0.00000   0.00000   0.00000   0.00000   0.00000
                  --------  --------  --------  --------  --------  --------
 0 Ce dz2             0.0       0.0      47.9       0.0       0.0       0.0
 0 Ce dxz             0.0       0.0       0.0     100.0       0.0       0.0
 0 Ce dyz           100.0       0.0       0.0       0.0       0.0       0.0
 0 Ce dx2y2           0.0       0.0      52.1       0.0       0.0       0.0
 0 Ce dxy             0.0     100.0       0.0       0.0       0.0       0.0
 0 Ce g0              0.0       0.0       0.0       0.0      45.2       0.0
 0 Ce g-1             0.0       0.0       0.0       0.0       0.0      78.6
 0 Ce g+2             0.0       0.0       0.0       0.0      49.2       0.0
 0 Ce g-3             0.0       0.0       0.0       0.0       0.0      21.4
 0 Ce g+4             0.0       0.0       0.0       0.0       5.6       0.0

                    156       157       158       159       160       161   
                  65.53234  65.53237  65.53256  65.53274  65.53277  65.53319
                   0.00000   0.00000   0.00000   0.00000   0.00000   0.00000
                  --------  --------  --------  --------  --------  --------
 0 Ce g0              0.0       0.0      12.0       0.0       0.0       0.0
 0 Ce g+1             0.0      24.1       0.0       0.0       0.0      75.9
 0 Ce g-1             0.0       0.0       0.0      21.4       0.0       0.0
 0 Ce g-2            51.2       0.0       0.0       0.0      48.8       0.0
 0 Ce g+3             0.0      75.9       0.0       0.0       0.0      24.1
 0 Ce g-3             0.0       0.0       0.0      78.6       0.0       0.0
 0 Ce g+4             0.0       0.0      88.0       0.0       0.0       0.0
 0 Ce g-4            48.8       0.0       0.0       0.0      51.2       0.0

                    162       163       164       165       166       167   
                  65.53319 139.05274 139.05320 139.05359 208.28771 602.23593
                   0.00000   0.00000   0.00000   0.00000   0.00000   0.00000
                  --------  --------  --------  --------  --------  --------
 0 Ce s               0.0       0.0       0.0       0.0     100.0       0.0
 0 Ce pz              0.0       0.0     100.0       0.0       0.0       0.0
 0 Ce px              0.0       0.0       0.0     100.0       0.0       0.0
 0 Ce py              0.0     100.0       0.0       0.0       0.0     100.0
 0 Ce g0             42.8       0.0       0.0       0.0       0.0       0.0
 0 Ce g+2            50.7       0.0       0.0       0.0       0.0       0.0
 0 Ce g+4             6.5       0.0       0.0       0.0       0.0       0.0

                    168       169       170       171       172       173   
                 602.23604 602.23613 816.96056 2549.87928 6577.22339 14633.54158
                   0.00000   0.00000   0.00000   0.00000   0.00000   0.00000
                  --------  --------  --------  --------  --------  --------
 0 Ce s               0.0       0.0     100.0     100.0     100.0     100.0
 0 Ce pz            100.0       0.0       0.0       0.0       0.0       0.0
 0 Ce px              0.0     100.0       0.0       0.0       0.0       0.0

                    174       175   
                 29190.74570 66328.85550
                   0.00000   0.00000
                  --------  --------
 0 Ce s             100.0     100.0


                     *******************************
                     * LOEWDIN POPULATION ANALYSIS *
                     *******************************

----------------------
LOEWDIN ATOMIC CHARGES
----------------------
   0 Ce:    4.000000
   1 Q :   -2.000000
   2 Q :   -2.000000

-------------------------------
LOEWDIN REDUCED ORBITAL CHARGES
-------------------------------
  0 Ces       :    10.001172  s :    10.001172
      pz      :     7.995222  p :    23.988305
      px      :     7.995562
      py      :     7.997521
      dz2     :     4.003181  d :    20.009822
      dxz     :     4.004174
      dyz     :     4.002282
      dx2y2   :     4.000188
      dxy     :     3.999997
      f0      :     0.000012  f :     0.000695
      f+1     :     0.000009
      f-1     :     0.000016
      f+2     :     0.000223
      f-2     :     0.000003
      f+3     :     0.000252
      f-3     :     0.000180
      g0      :     0.000001  g :     0.000006
      g+1     :     0.000001
      g-1     :     0.000000
      g+2     :     0.000002
      g-2     :     0.000000
      g+3     :     0.000001
      g-3     :     0.000001
      g+4     :     0.000000
      g-4     :     0.000000
      h0      :     0.000000  h :     0.000000
      h+1     :     0.000000
      h-1     :     0.000000
      h+2     :     0.000000
      h-2     :     0.000000
      h+3     :     0.000000
      h-3     :     0.000000
      h+4     :     0.000000
      h-4     :     0.000000
      h+5     :     0.000000
      h-5     :     0.000000

  1 Q 

  2 Q 



                      *****************************
                      * MAYER POPULATION ANALYSIS *
                      *****************************

  NA   - Mulliken gross atomic population
  ZA   - Total nuclear charge
  QA   - Mulliken gross atomic charge
  VA   - Mayer's total valence
  BVA  - Mayer's bonded valence
  FA   - Mayer's free valence

  ATOM       NA         ZA         QA         VA         BVA        FA
  0 Ce    54.0000    58.0000     4.0000     0.0000     0.0000     0.0000
  1 Q      0.0000    -2.0000    -2.0000     0.0000     0.0000     0.0000
  2 Q      0.0000    -2.0000    -2.0000     0.0000     0.0000     0.0000

  Mayer bond orders larger than 0.100000
  => no bond orders to print

-------
TIMINGS
-------

Total SCF time: 0 days 0 hours 0 min 11 sec 

Total time                  ....      11.693 sec
Sum of individual times     ....      10.926 sec  ( 93.4%)

SCF preparation             ....       0.042 sec  (  0.4%)
Fock matrix formation       ....      10.828 sec  ( 92.6%)
  Startup                   ....       0.001 sec  (  0.0% of F)
  Coulomb+Exchange Fock     ....      11.580 sec  (106.9% of F)
Diagonalization             ....       0.000 sec  (  0.0%)
Density matrix formation    ....       0.007 sec  (  0.1%)
Total Energy calculation    ....       0.004 sec  (  0.0%)
Population analysis         ....       0.008 sec  (  0.1%)
Orbital Transformation      ....       0.003 sec  (  0.0%)
Orbital Orthonormalization  ....       0.000 sec  (  0.0%)
DIIS solution               ....       0.016 sec  (  0.1%)
SOSCF solution              ....       0.017 sec  (  0.1%)
Finished LeanSCF after  11.7 sec

Maximum memory used throughout the entire LEANSCF-calculation: 38.4 MB


           ************************************************************
           *        Program running with 4 parallel MPI-processes     *
           *              working on a common directory               *
           ************************************************************

------------------------------------------------------------------------------
                         ORCA PROPERTY INTEGRAL CALCULATIONS
------------------------------------------------------------------------------

GBWName                                   ... start.gbw
Number of atoms                           ...      3
Number of basis functions                 ...    176
Max core memory                           ...   2000 MB

Dipole integrals                          ... YES(DKH)
Quadrupole integrals                      ...  NO
Linear momentum integrals                 ...  NO
Angular momentum integrals                ...  NO
Higher moments length integrals           ...  NO
Higher moments velocity integrals         ...  NO
Kinetic energy integrals                  ...  NO
GIAO right hand sides                     ...  NO
GIAO dipole derivative integrals          ...  NO
SOC integrals                             ...  NO
EPR diamagnetic integrals (GIAO)          ...  NO
EPR gauge integrals                       ...  NO
Field gradient integrals                  ...  NO (   0 nuclei)
Spin-dipole/Fermi contact integrals       ...  NO (   0 nuclei)
Contact density integrals                 ...  NO (   0 nuclei)
Nucleus-orbit integrals                   ...  NO (   0 nuclei)
Geometric perturbations                   ...  NO (   3 nuclei)

DKH transformation order                  ... Second
Note: picture-change corrections are only included
      for the integrals annotated with "YES(DKH)"!

Choice of electric origin   ... Center of mass
Position of electric origin ... (  0.0000,  0.0000,  0.0000) 
Choice of magnetic origin   ... GIAO
Position of magnetic origin ... (  0.0000,  0.0000,  0.0000) 

Calculating integrals                     ... Electric Dipole (Length)     done (  0.0 sec)

Property integrals calculated in   0.0 sec

Maximum memory used throughout the entire PROPINT-calculation: 27.7 MB

-------------------------   --------------------
FINAL SINGLE POINT ENERGY     -8852.584885547842
-------------------------   --------------------



           ************************************************************
           *        Program running with 4 parallel MPI-processes     *
           *              working on a common directory               *
           ************************************************************

------------------------------------------------------------------------------
                              ORCA PROPERTY CALCULATIONS
------------------------------------------------------------------------------

GBWName                                 ... start.gbw
Number of atoms                         ...      3
Number of basis functions               ...    176
Max core memory                         ...   2000 MB

Electric properties:
Dipole moment                           ... YES(DKH)
Quadrupole moment                       ...  NO
Static polarizability (Dipole/Dipole)   ...  NO
Static polarizability (Dipole/Quad.)    ...  NO
Static polarizability (Quad./Quad.)     ...  NO
Static polarizability (Velocity)        ...  NO
Static hyperpolarizability              ...  NO

Atomic electric properties:
Dipole moment                           ...  NO
Quadrupole moment                       ...  NO
Static polarizability                   ...  NO

Choice of electric origin               ... Center of mass
Position of electric origin             ...     0.000000     0.000000     0.000000

General magnetic properties:
Magnetizability                         ...  NO

EPR properties:
g-Tensor (aka g-matrix)                 ...  NO
Zero-Field splitting spin-orbit         ...  NO
Zero-field splitting spin-spin          ...  NO
Hyperfine couplings                     ...  NO (   0 nuclei)
Quadrupole couplings                    ...  NO (   0 nuclei)
Contact density                         ...  NO (   0 nuclei)

NMR properties:
[...]
           |   1.560842  -0.000000  -0.000000 | X:   0.204159 |   0.000000   1.000000  -0.000000 |
 279.00000 |  -0.000000   0.204159   0.000000 | Y:   0.320258 |   0.000000   0.000000   1.000000 |
           |  -0.000000   0.000000   0.320258 | Z:   1.560842 |  -1.000000   0.000000   0.000000 |
-----------|------ x -------- y -------- z ---|---------------|------ x -------- y -------- z ---|
           |   1.560242  -0.000000  -0.000000 | X:   0.204895 |   0.000000   1.000000  -0.000000 |
 280.00000 |  -0.000000   0.204895   0.000000 | Y:   0.321380 |   0.000000   0.000000   1.000000 |
           |  -0.000000   0.000000   0.321380 | Z:   1.560242 |  -1.000000   0.000000   0.000000 |
-----------|------ x -------- y -------- z ---|---------------|------ x -------- y -------- z ---|
           |   1.559639  -0.000000  -0.000000 | X:   0.205630 |   0.000000   1.000000  -0.000000 |
 281.00000 |  -0.000000   0.205630   0.000000 | Y:   0.322500 |   0.000000   0.000000   1.000000 |
           |  -0.000000   0.000000   0.322500 | Z:   1.559639 |  -1.000000   0.000000   0.000000 |
-----------|------ x -------- y -------- z ---|---------------|------ x -------- y -------- z ---|
           |   1.559033  -0.000000  -0.000000 | X:   0.206365 |   0.000000   1.000000  -0.000000 |
 282.00000 |  -0.000000   0.206365   0.000000 | Y:   0.323619 |   0.000000   0.000000   1.000000 |
           |  -0.000000   0.000000   0.323619 | Z:   1.559033 |  -1.000000   0.000000   0.000000 |
-----------|------ x -------- y -------- z ---|---------------|------ x -------- y -------- z ---|
           |   1.558426  -0.000000  -0.000000 | X:   0.207100 |   0.000000   1.000000  -0.000000 |
 283.00000 |  -0.000000   0.207100   0.000000 | Y:   0.324737 |   0.000000   0.000000   1.000000 |
           |  -0.000000   0.000000   0.324737 | Z:   1.558426 |  -1.000000   0.000000   0.000000 |
-----------|------ x -------- y -------- z ---|---------------|------ x -------- y -------- z ---|
           |   1.557815  -0.000000  -0.000000 | X:   0.207835 |   0.000000   1.000000  -0.000000 |
 284.00000 |  -0.000000   0.207835   0.000000 | Y:   0.325853 |   0.000000   0.000000   1.000000 |
           |  -0.000000   0.000000   0.325853 | Z:   1.557815 |  -1.000000   0.000000   0.000000 |
-----------|------ x -------- y -------- z ---|---------------|------ x -------- y -------- z ---|
           |   1.557203  -0.000000  -0.000000 | X:   0.208570 |   0.000000   1.000000  -0.000000 |
 285.00000 |  -0.000000   0.208570   0.000000 | Y:   0.326969 |   0.000000   0.000000   1.000000 |
           |  -0.000000   0.000000   0.326969 | Z:   1.557203 |  -1.000000   0.000000   0.000000 |
-----------|------ x -------- y -------- z ---|---------------|------ x -------- y -------- z ---|
           |   1.556588  -0.000000  -0.000000 | X:   0.209305 |   0.000000   1.000000  -0.000000 |
 286.00000 |  -0.000000   0.209305   0.000000 | Y:   0.328083 |   0.000000   0.000000   1.000000 |
           |  -0.000000   0.000000   0.328083 | Z:   1.556588 |  -1.000000   0.000000   0.000000 |
-----------|------ x -------- y -------- z ---|---------------|------ x -------- y -------- z ---|
           |   1.555971  -0.000000  -0.000000 | X:   0.210040 |   0.000000   1.000000  -0.000000 |
 287.00000 |  -0.000000   0.210040   0.000000 | Y:   0.329195 |   0.000000   0.000000   1.000000 |
           |  -0.000000   0.000000   0.329195 | Z:   1.555971 |  -1.000000   0.000000   0.000000 |
-----------|------ x -------- y -------- z ---|---------------|------ x -------- y -------- z ---|
           |   1.555352  -0.000000  -0.000000 | X:   0.210774 |   0.000000   1.000000  -0.000000 |
 288.00000 |  -0.000000   0.210774   0.000000 | Y:   0.330307 |   0.000000   0.000000   1.000000 |
           |  -0.000000   0.000000   0.330307 | Z:   1.555352 |  -1.000000   0.000000   0.000000 |
-----------|------ x -------- y -------- z ---|---------------|------ x -------- y -------- z ---|
           |   1.554731  -0.000000  -0.000000 | X:   0.211509 |   0.000000   1.000000  -0.000000 |
 289.00000 |  -0.000000   0.211509   0.000000 | Y:   0.331417 |   0.000000   0.000000   1.000000 |
           |  -0.000000   0.000000   0.331417 | Z:   1.554731 |  -1.000000   0.000000   0.000000 |
-----------|------ x -------- y -------- z ---|---------------|------ x -------- y -------- z ---|
           |   1.554107  -0.000000  -0.000000 | X:   0.212243 |   0.000000   1.000000  -0.000000 |
 290.00000 |  -0.000000   0.212243   0.000000 | Y:   0.332526 |   0.000000   0.000000   1.000000 |
           |  -0.000000   0.000000   0.332526 | Z:   1.554107 |  -1.000000   0.000000   0.000000 |
-----------|------ x -------- y -------- z ---|---------------|------ x -------- y -------- z ---|
           |   1.553481  -0.000000  -0.000000 | X:   0.212978 |   0.000000   1.000000  -0.000000 |
 291.00000 |  -0.000000   0.212978   0.000000 | Y:   0.333633 |   0.000000   0.000000   1.000000 |
           |  -0.000000   0.000000   0.333633 | Z:   1.553481 |  -1.000000   0.000000   0.000000 |
-----------|------ x -------- y -------- z ---|---------------|------ x -------- y -------- z ---|
           |   1.552853  -0.000000  -0.000000 | X:   0.213712 |   0.000000   1.000000  -0.000000 |
 292.00000 |  -0.000000   0.213712   0.000000 | Y:   0.334739 |   0.000000   0.000000   1.000000 |
           |  -0.000000   0.000000   0.334739 | Z:   1.552853 |  -1.000000   0.000000   0.000000 |
-----------|------ x -------- y -------- z ---|---------------|------ x -------- y -------- z ---|
           |   1.552223  -0.000000  -0.000000 | X:   0.214446 |   0.000000   1.000000  -0.000000 |
 293.00000 |  -0.000000   0.214446   0.000000 | Y:   0.335844 |   0.000000   0.000000   1.000000 |
           |  -0.000000   0.000000   0.335844 | Z:   1.552223 |  -1.000000   0.000000   0.000000 |
-----------|------ x -------- y -------- z ---|---------------|------ x -------- y -------- z ---|
           |   1.551591  -0.000000  -0.000000 | X:   0.215180 |   0.000000   1.000000  -0.000000 |
 294.00000 |  -0.000000   0.215180   0.000000 | Y:   0.336947 |   0.000000   0.000000   1.000000 |
           |  -0.000000   0.000000   0.336947 | Z:   1.551591 |  -1.000000   0.000000   0.000000 |
-----------|------ x -------- y -------- z ---|---------------|------ x -------- y -------- z ---|
           |   1.550956  -0.000000  -0.000000 | X:   0.215914 |   0.000000   1.000000  -0.000000 |
 295.00000 |  -0.000000   0.215914   0.000000 | Y:   0.338049 |   0.000000   0.000000   1.000000 |
           |  -0.000000   0.000000   0.338049 | Z:   1.550956 |  -1.000000   0.000000   0.000000 |
-----------|------ x -------- y -------- z ---|---------------|------ x -------- y -------- z ---|
           |   1.550320  -0.000000  -0.000000 | X:   0.216648 |   0.000000   1.000000  -0.000000 |
 296.00000 |  -0.000000   0.216648   0.000000 | Y:   0.339150 |   0.000000   0.000000   1.000000 |
           |  -0.000000   0.000000   0.339150 | Z:   1.550320 |  -1.000000   0.000000   0.000000 |
-----------|------ x -------- y -------- z ---|---------------|------ x -------- y -------- z ---|
           |   1.549682  -0.000000  -0.000000 | X:   0.217381 |   0.000000   1.000000  -0.000000 |
 297.00000 |  -0.000000   0.217381   0.000000 | Y:   0.340249 |   0.000000   0.000000   1.000000 |
           |  -0.000000   0.000000   0.340249 | Z:   1.549682 |  -1.000000   0.000000   0.000000 |
-----------|------ x -------- y -------- z ---|---------------|------ x -------- y -------- z ---|
           |   1.549042  -0.000000  -0.000000 | X:   0.218115 |   0.000000   1.000000  -0.000000 |
 298.00000 |  -0.000000   0.218115   0.000000 | Y:   0.341347 |   0.000000   0.000000   1.000000 |
           |  -0.000000   0.000000   0.341347 | Z:   1.549042 |  -1.000000   0.000000   0.000000 |
-----------|------ x -------- y -------- z ---|---------------|------ x -------- y -------- z ---|
           |   1.548400  -0.000000  -0.000000 | X:   0.218848 |   0.000000   1.000000  -0.000000 |
 299.00000 |  -0.000000   0.218848   0.000000 | Y:   0.342443 |   0.000000   0.000000   1.000000 |
           |  -0.000000   0.000000   0.342443 | Z:   1.548400 |  -1.000000   0.000000   0.000000 |
-----------|------ x -------- y -------- z ---|---------------|------ x -------- y -------- z ---|
           |   1.547755  -0.000000  -0.000000 | X:   0.219581 |   0.000000   1.000000  -0.000000 |
 300.00000 |  -0.000000   0.219581   0.000000 | Y:   0.343538 |   0.000000   0.000000   1.000000 |
           |  -0.000000   0.000000   0.343538 | Z:   1.547755 |  -1.000000   0.000000   0.000000 |
-------------------------------------------------------------------------------------------------|
Computation of the magnetization torque ... skipped by the user
Computation of the molar magnetization ... skipped by the user

-@-#-$-%-&-*--@-#-$-%-&-*--@-#-$-%-&-*--@-#-$-%-&-*--@-#-$-%-&-*--@-#-$-%-&-*--@-#-$-%-&-*--@-#-$-%-&-*--@-#-$-%-&-*--@-#-$-%-&-*-

          HAPPY   LANDING !!!   SINGLE_ANISO ENDED  OK !

-*-&-%-$-#-@--*-&-%-$-#-@--*-&-%-$-#-@--*-&-%-$-#-@--*-&-%-$-#-@--*-&-%-$-#-@--*-&-%-$-#-@--*-&-%-$-#-@--*-&-%-$-#-@--*-&-%-$-#-@-
 SINGLE_ANISO finished sucessfully!



-------------------------------------------------------------------------------
                              ORCA-AILFT
-------------------------------------------------------------------------------

[file orca_tools/SHARK/shark_setup_ri.cpp, line 82]: Error (SHARK/SelectAuxBasis): AuxC requested but not present


ORCA finished by error termination in AILFT
Calling Command: /home/dumitruc/Programs/orca610/orca_ailft cerium_job2 
  .... trying to continue anyways

--------------
CASSCF TIMINGS
--------------

Total time                       ...        1.0 sec
Sum of individual times          ...        1.0 sec ( 99.4%)

Calculation of AO operators
Calculation of MO transformed quantities
Configuration interaction steps
   CI-setup phase                ...        0.8 sec ( 78.4%)
Orbital improvement steps
Properties                       ...        0.2 sec ( 20.9%)
   SOC integral calculation      ...        0.0 sec (  0.0%)
   SSC RMEs (incl. integrals)    ...        0.0 sec (  0.0%)
   SOC RMEs                      ...        0.0 sec (  0.0%)

Maximum memory used throughout the entire CASSCF-calculation: 47.3 MB

-------------------------   --------------------
FINAL SINGLE POINT ENERGY     -8853.176724348603
-------------------------   --------------------



           ************************************************************
           *        Program running with 4 parallel MPI-processes     *
           *              working on a common directory               *
           ************************************************************

------------------------------------------------------------------------------
                              ORCA PROPERTY CALCULATIONS
------------------------------------------------------------------------------

GBWName                                 ... cerium_job2.gbw
Number of atoms                         ...      3
Number of basis functions               ...    176
Max core memory                         ...   2000 MB

Electric properties:
Dipole moment                           ... YES(DKH)
Quadrupole moment                       ...  NO
Static polarizability (Dipole/Dipole)   ...  NO
Static polarizability (Dipole/Quad.)    ...  NO
Static polarizability (Quad./Quad.)     ...  NO
Static polarizability (Velocity)        ...  NO
Static hyperpolarizability              ...  NO

Atomic electric properties:
Dipole moment                           ...  NO
Quadrupole moment                       ...  NO
Static polarizability                   ...  NO

Choice of electric origin               ... Center of mass
Position of electric origin             ...     0.000000     0.000000     0.000000

General magnetic properties:
Magnetizability                         ...  NO

EPR properties:
g-Tensor (aka g-matrix)                 ...  NO
Zero-Field splitting spin-orbit         ...  NO
Zero-field splitting spin-spin          ...  NO
Hyperfine couplings                     ...  NO (   0 nuclei)
Quadrupole couplings                    ...  NO (   0 nuclei)
Contact density                         ...  NO (   0 nuclei)

NMR properties:
Chemical shifts                         ...  NO (   0 nuclei)
Spin-rotation constants                 ...  NO (   0 nuclei)
Spin-spin couplings                     ...  NO (   0 nuclei,    0 pairs)

Choice of magnetic origin               ... Center of nuclear charge
Position of magnetic origin             ...     0.000000     0.000000    -0.257094

Properties with geometric perturbations:
SCF Hessian                             ...  NO
IR spectrum                             ...  NO
VCD spectrum                            ...  NO
X-ray spectroscopy properties:
SCF XES/XAS/RIXS spectra                ...  NO

SCF SOC stabilization energy            ...  NO
Diagonal Born-Oppenheimer correction    ...  NO
DKH transformation order                ... Second
Note: picture-change corrections are only included
      for the properties annotated with "YES(DKH)"!


-------------
DIPOLE MOMENT
-------------

Method             : CASSCF/ALL STATES AVERAGE
Type of density    : Electron Density
Level              : Unrelaxed density
State              :  -1
Multiplicity       :  -1
Irrep              :   0
Energy             : -8853.1679367981814721 Eh
Basis              : AO
                                X                 Y                 Z
Electronic contribution:      0.000000000       0.000000000       0.563314607
Nuclear contribution   :      0.000000000       0.000000000     -13.883075925
                        -----------------------------------------
Total Dipole Moment    :      0.000000000       0.000000000     -13.319761318
                        -----------------------------------------
Magnitude (a.u.)       :     13.319761318
Magnitude (Debye)      :     33.856142677



--------------------
Rotational spectrum 
--------------------
 
Rotational constants in cm-1:             0.000000             0.000000             0.000000 
Rotational constants in MHz :             0.000000             0.000000             0.000000 

Dipole components along the rotational axes: 
x,y,z [a.u.] :     0.000000     0.000000   -13.319761 
x,y,z [Debye]:     0.000000     0.000000   -33.856143 

 

Dipole moment calculation done in   0.0 sec 

Maximum memory used throughout the entire PROP-calculation: 19.3 MB

--------------------------------
SUGGESTED CITATIONS FOR THIS RUN
--------------------------------

Below you find a list of papers that are relevant to this ORCA run
We neither can nor want to force you to cite these papers, but we appreciate if you do
You receive ORCA, which is the product of decades of hard work by many enthusiastic individuals, for free
The only thing we kindly ask in return is that you cite our papers,
We deeply appreciate it, if you show your appreciation for ORCA by not just citing the generic ORCA reference.

Please note that relegating all ORCA citations to the supporting information does *not* help us.
SI sections are not indexed - citations you put there will not count into any citation statistics
But we need these citations in order to attract the funding resources that allow us to do what we are doing

Therefore, if you are a happy ORCA user, please consider citing a few of the papers listed below in the main body of your paper

In addition to the list printed below, the program has created the file cerium_job2.bibtex that contains the list in bibtex format
You can import this file easily into all common literature databanks and citation aid programs


List of essential papers. We consider these as the minimum necessary citations

  1. Neese, F.
     Software update: the ORCA program system, version 6.0
     WIRES Comput. Molec. Sci. 2025 15(1), e70019
     doi.org/10.1002/wcms.7019

List of papers to cite with high priority. The work reported in these papers was absolutely
necessary for this run to complete.
Our perspective: the developers of density functionals and basis sets usually get cited in chemistry papers
Good! But without the algorithms to do something with them, the functionals or basis sets would not do anything.
Hence, in our opinion, the algorithm design and method developments papers are equally worthy of getting cited

  1. Ganyushin, D.; Neese, F.
     First-principles calculations of zero-field splitting parameters
     J. Chem. Phys. 2006 125(2), Art. No. 024103
     doi.org/10.1063/1.2213976
  2. Atanasov, M.; Ganyushin, D.; Sivalingam, K.; Neese, F.
     A Modern First-Principles View on Ligand Field Theory Through the Eyes of Correlated Multireference Wavefunctions
     Struct. Bond. 2012 142 , 149-220
     doi.org/10.1007/430_2011_57
  3. Kollmar, C.; Sivalingam, K.; Helmich-Paris, B.; Angeli, C.; Neese, F.
     A perturbation-based super-CI approach for the orbital optimization of a CASSCF wave function
     J. Comput. Chem. 2019 40 , 1463-1470
     doi.org/10.1002/jcc.25801
  4. Lang, L.; Neese, F.
     Spin-dependent properties in the framework of the dynamic correlation dressed complete active space method
     J. Chem. Phys. 2019 150 , 
     doi.org/10.1063/1.5085203
  5. Neese, F.
     The SHARK Integral Generation and Digestion System
     J. Comp. Chem. 2022 44(3), 381
     doi.org/10.1002/jcc.26942
  6. Ugandi, M.; Roemelt, M.
     A recursive formulation of one-electron coupling coefficients for spin-adapted configuration interaction calculations featuring many unpaired electrons
     Int. J. Quantum Chem. 2023 123 , e27045
     doi.org/10.1002/qua.27045

List of suggested additional citations. These are papers that are important in the 'surrounding' of 
of this run, or papers that preceded the highly important papers. If you like your results we are grateful for a citation.

  1. Neese, F.
     The ORCA program system
     WIRES Comput. Molec. Sci. 2012 2(1), 73-78
     doi.org/10.1002/wcms.81
  2. Aravena, D.; Atanasov, M.; Neese, F.
     Periodic Trends in Lanthanide Compounds through the Eyes of Multireference ab Initio Theory
     Inorg. Chem. 2016 55(9), 4457-4469
     doi.org/10.1021/acs.inorgchem.6b00244
  3. Jung, J.L.; Atanasov, M.; Neese, F.
     Ab Initio Ligand-Field Theory Analysis and Covalency Trends in Actinide and Lanthanide Free Ions and Octahedral Complexes
     Inorg. Chem. 2016 56(15), 8802-8816
  4. Neese, F.
     Software update: the ORCA program system, version 4.0
     WIRES Comput. Molec. Sci. 2018 8(1), 1-6
     doi.org/10.1002/wcms.1327
  5. Neese, F.; Wennmohs, F.; Becker, U.; Riplinger, C.
     The ORCA quantum chemistry program package
     J. Chem. Phys. 2020 152(22), 224108
     doi.org/10.1063/5.0004608
  6. Neese, F.
     Software update: The ORCA program system—Version 5.0
     WIRES Comput. Molec. Sci. 2022 12(1), e1606
     doi.org/10.1002/wcms.1606

List of optional additional citations

  1. Neese, F.
     Approximate second-order SCF convergence for spin unrestricted wavefunctions
     Chem. Phys. Lett. 2000 325(1-3), 93-98
     doi.org/10.1016/s0009-2614(00)00662-x

Timings for individual modules:

Sum of individual times          ...       72.535 sec (=   1.209 min)
Startup calculation              ...        0.489 sec (=   0.008 min)   0.7 %
Relativistic integrals           ...        0.250 sec (=   0.004 min)   0.3 %
SCF iterations                   ...        0.155 sec (=   0.003 min)   0.2 %
CASSCF iterations                ...       55.699 sec (=   0.928 min)  76.8 %
Property integrals               ...       15.767 sec (=   0.263 min)  21.7 %
Property calculations            ...        0.174 sec (=   0.003 min)   0.2 %



                             ****ORCA TERMINATED NORMALLY****
TOTAL RUN TIME: 0 days 0 hours 1 minutes 26 seconds 10 msec
