SCRATCH DIRECTORY IS: /media/scratch/dumitruc/cerium.16941

                                 *****************
                                 * O   R   C   A *
                                 *****************

                                            #,                                       
                                            ###                                      
                                            ####                                     
                                            #####                                    
                                            ######                                   
                                           ########,                                 
                                     ,,################,,,,,                         
                               ,,#################################,,                 
                          ,,##########################################,,             
                       ,#########################################, ''#####,          
                    ,#############################################,,   '####,        
                  ,##################################################,,,,####,       
                ,###########''''           ''''###############################       
              ,#####''   ,,,,##########,,,,          '''####'''          '####       
            ,##' ,,,,###########################,,,                        '##       
           ' ,,###''''                  '''############,,,                           
         ,,##''                                '''############,,,,        ,,,,,,###''
      ,#''                                            '''#######################'''  
     '                                                          ''''####''''         
             ,#######,   #######,   ,#######,      ##                                
            ,#'     '#,  ##    ##  ,#'     '#,    #''#        ,####,    ,#,          
            ##       ##  ##   ,#'  ##            #'  '#       #'       ,# #          
            ##       ##  #######   ##           ,######,      #####,      #          
            '#,     ,#'  ##    ##  '#,     ,#' ,#      #,     #,   #      #          
             '#######'   ##     ##  '#######'  #'      '#     '####' #    #          



                #########################################################
                #                        -***-                          #
                #          Department of theory and spectroscopy        #
                #                                                       #
                #                      Frank Neese                      #
                #                                                       #
                #     Directorship, Architecture, Infrastructure        #
                #                    SHARK, DRIVERS                     #
                #        Core code/Algorithms in most modules           #
                #                                                       #
                #        Max Planck Institute fuer Kohlenforschung      #
                #                Kaiser Wilhelm Platz 1                 #
                #                 D-45470 Muelheim/Ruhr                 #
                #                      Germany                          #
                #                                                       #
                #                  All rights reserved                  #
                #                        -***-                          #
                #########################################################


                         Program Version 6.1.0  -  RELEASE   -
                                (GIT: $679e74b$)
                          ($2025-06-10 18:02:51 +0200$)


 With contributions from (in alphabetic order):
[Max-Planck-Institut fuer Kohlenforschung]                               
  Daniel Aravena         : Magnetic Suceptibility                        
  Michael Atanasov       : Ab Initio Ligand Field Theory (pilot matlab implementation)
  Alexander A. Auer      : GIAO ZORA, VPT2 properties, NMR spectrum      
  Ute Becker             : All parallelization in ORCA, NUMFREQ, NUMCALC 
  Giovanni Bistoni       : ED, misc. LED, open-shell LED, HFLD           
  Dmytro Bykov           : pre 5.0 version of the SCF Hessian            
  Marcos Casanova-Páez   : Triplet and SCS-CIS(D). UHF-(DLPNO)-IP/EA/STEOM-CCSD. UHF-CVS-IP/STEOM-CCSD   
  Vijay G. Chilkuri      : MRCI spin determinant printing, contributions to CSF-ICE 
  Pauline Colinet        : FMM embedding                                 
  Dipayan Datta          : RHF DLPNO-CCSD density                        
  Achintya Kumar Dutta   : EOM-CC, STEOM-CC                              
  Nicolas Foglia         : Exact transition moments, OPA infrastructure, MCD improvements    
  Dmitry Ganyushin       : Spin-Orbit,Spin-Spin,Magnetic field MRCI      
  Miquel Garcia-Rates    : C-PCM and meta-GGA Hessian, CCSD/C-PCM, Gaussian charge scheme 
  Tiago L. C. Gouveia    : GS-ROHF, GS-ROCIS                             
  Yang Guo               : DLPNO-NEVPT2, F12-NEVPT2, CIM, IAO-localization        
  Andreas Hansen         : Spin unrestricted coupled pair/coupled cluster methods 
  Ingolf Harden          : AUTO-CI MPn and infrastructure                
  Benjamin Helmich-Paris : MC-RPA, TRAH-(SCF,CASSCF), AVAS, COSX integrals, SCF dyn. polar., MC-PDFT, srDFT 
  Lee Huntington         : MR-EOM, pCC                                   
  Robert Izsak           : Overlap fitted RIJCOSX, COSX-SCS-MP3, EOM     
  Riya Kayal             : Wick's Theorem for AUTO-CI, AUTO-CI UHF-CCSDT 
  Emily Kempfer          : AUTO-CI RHF CISDT and CCSDT, approximate NEVPT4
  Christian Kollmar      : KDIIS, OOCD, Brueckner-CCSD(T), CCSD density, CASPT2, CASPT2-K, improved NEVPT2 
  Axel Koslowski         : Symmetry handling                             
  Simone Kossmann        : meta-GGA functionals, TD-DFT gradient, OOMP2, (MP2 Hessian; deprecated post 5.0) 
  Lucas Lang             : DCDCAS, Hyperfine gauge corrections, ICE-SOC+SSC
  Marvin Lechner         : AUTO-CI (C++ implementation), FIC-MRCC        
  Spencer Leger          : CASSCF response                               
  Dagmar Lenk            : GEPOL surface, SMD, ORCA-2-JSON               
  Dimitrios Liakos       : Extrapolation schemes; Compound Job, Property file
  Dimitrios Manganas     : Further ROCIS development; embedding schemes. LFT, Crystal Embedding 
  Dimitrios Pantazis     : SARC Basis sets                               
  Anastasios Papadopoulos: AUTO-CI, single reference methods and gradients 
  Taras Petrenko         : pre 6.0 DFT Hessian and TD-DFT gradient,  ECA, NRVS 
  Petra Pikulova         : Analytic Raman intensities                    
  Peter Pinski           : DLPNO-MP2, DLPNO-MP2 Gradient                 
  Shashank Vittal Rao    : ES-AILFT, MagRelax                            
  Christoph Reimann      : Effective Core Potentials                     
  Marius Retegan         : Local ZFS, SOC                                
  Christoph Riplinger    : Optimizer, TS searches, QM/MM, DLPNO-CCSD(T), (RO)-DLPNO pert. Triples 
  Michael Roemelt        : Original ROCIS implementation, recursive CI coupling coefficients
  Masaaki Saitow         : Open-shell DLPNO-CCSD energy and density      
  Barbara Sandhoefer     : DKH picture change effects                    
  Yorick L. A. Schmerwitz: GMF and freeze-and-release deltaSCF, NEB S-IDPP initial path                    
  Kantharuban Sivalingam : CASSCF convergence/infrastructure, NEVPT2, NEVPT3, NEVPT4(SD), FIC-MRCI and CEPA variants
  Bernardo de Souza      : ESD, SOC TD-DFT                               
  Georgi L. Stoychev     : AutoAux, RI-MP2 NMR, DLPNO-MP2 response, X2C  
  Van Anh Tran           : RI-MP2 g-tensors                              
  Willem Van den Heuvel  : Paramagnetic NMR                              
  Zikuan Wang            : NOTCH, Electric field optimization            
  Frank Wennmohs         : Technical directorship and infrastructure     
  Hang Xu                : AUTO-CI-Response properties                   
                                                                         
[FACCTs GmbH]                                                            
  Markus Bursch, Nicolas Foglia, Miquel Garcia-Rates, Ingolf Harden, Hagen Neugebauer, Anastasios Papadopoulos, 
  Christoph Riplinger, Bernardo de Souza, Georgi L. Stoychev                                                    
                                                                 
  APM, various basis sets, CI-OPT, improved COSX, DLPNO-Multilevel,           
  DOCKER, DRACO, updates on ESD, Fragmentator, GOAT, IRC, LR-CPCM, L-BFGS, MBIS, meta-GGA TD-DFT gradient, ML-optimized integration grids, 
  MM, NACMEs, nearIR, NEB, NEB-TS, NL-DFT gradient (VV10), 2- and 3-layer-ONIOM, interface openCOSMO-RS, QMMM,   
  Crystal-QMMM, RESP, rigid body optimization, SF, symmetry and pop. for TD-DFT, various functionals, SOLVATOR                                   
                                                                         
[Other institutions]                                                     
  V. Asgeirsson          : NEB                                           
  Christoph Bannwarth    : sTDA-DFT, sTD-DFT, PBEh-3c, B97-3c, D3        
  Giovanni Bistoni       : ETS/NOCV, ADLD/ADEX, COVALED                  
  Martin Brehm           : Molecular dynamics                            
  Ronald Cardenas        : ETS/NOCV                                      
  Martina Colucci        : COVALED                                       
  Sebastian Ehlert       : rSCAN, r2SCAN, r2SCAN-3c, D4, dhf basis sets  
  Marvin Friede          : D4 for Fr, Ra, Ac-Lr                          
  Lars Goerigk           : TD-DFT with DH, B97 family of functionals     
  Stefan Grimme          : VdW corrections, initial TS optimization, DFT functionals, gCP, sTDA/sTD-DF 
  Waldemar Hujo          : DFT-NL                                        
  H. Jonsson             : NEB                                           
  Holger Kruse           : gCP                                           
  Marcel Mueller         : wB97X-3c, vDZP basis set                      
  Hagen Neugebauer       : wr2SCAN, Native XTB                           
  Gianluca Regni         : ADLD/ADEX                                     
  Tobias Risthaus        : pre 6.0 range-separated hybrid DFT and stability analysis
  Lukas Wittmann         : regularized MP2, r2SCAN double-hybrids, wr2SCAN        
                                                                         
We gratefully acknowledge several colleagues who have allowed us to      
interface, adapt or use parts of their codes:                            
  Ed Valeev, F. Pavosevic, A. Kumar             : LibInt (2-el integral package), F12 methods 
  Garnet Chan, S. Sharma, J. Yang, R. Olivares  : DMRG                   
  Ulf Ekstrom                                   : XCFun DFT Library      
  Mihaly Kallay                                 : mrcc  (arbitrary order and MRCC methods)
  Frank Weinhold                                : gennbo (NPA and NBO analysis)           
  Simon Mueller                                 : openCOSMO-RS                            
  Christopher J. Cramer and Donald G. Truhlar   : smd solvation model                     
  S Lehtola, MJT Oliveira, MAL Marques          : LibXC Library                           
  Liviu Ungur et al                             : ANISO software                          


 Your calculation uses the libint2 library for the computation of 2-el integrals
 For citations please refer to: http://libint.valeyev.net

 Your ORCA version has been built with support for libXC version: 7.0.0
 For citations please refer to: https://libxc.gitlab.io

 This ORCA versions uses:
   CBLAS   interface :  Fast vector & matrix operations
   LAPACKE interface :  Fast linear algebra routines
   SCALAPACK package :  Parallel linear algebra routines
   Shared memory     :  Shared parallel matrices
   BLAS/LAPACK       :  OpenBLAS 0.3.29  USE64BITINT DYNAMIC_ARCH NO_AFFINITY Haswell SINGLE_THREADED
        Core in use  :  Haswell
   Copyright (c) 2011-2014, The OpenBLAS Project


  ***********************************
  * Starting time: Thu Oct 16 09:34:16 2025
  * Host name:     bohr
  * Process ID:    856435
  * Working dir.:  /media/scratch/dumitruc/cerium.16941
  ***********************************

NOTE: MaxCore=2000 MB was set to SCF,MP2,MDCI,CIPSI,MRCI,RASCI and CIS
      => If you want to overwrite this, your respective input block should be placed after the MaxCore statement
================================================================================

----- Orbital basis set information -----
Your calculation utilizes the basis: SARC2-DKH-QZVP
   D. Aravena, F. Neese and D. A. Pantazis, J. Chem. Theory Comput. 12, 1148 (2016).

================================================================================
                                        WARNINGS
                       Please study these warnings very carefully!
================================================================================


WARNING: The basis set has functions with high angular momentum (Lmax>4).
         We might need to increase small grids for safety reasons and
         in general, DEFGRID3 is recommend for such cases.
  ===> : GRIDX1, TD-DFT and the CP-SCF AngGrids will be increased to at least 2


CAS(DoSusceptibility), calculation requested: setting Magnetic origin to Nuclear Charge center
WARNING: In AILFT F2ff/F4ff remain undefined when considering only the HS Multiplicity block
         Be Careful with the results!
TIP:     If possible use in addition a LS Multiplicity Block

================================================================================
                                       INPUT FILE
================================================================================
NAME = cerium.inp
|  1> ! dkh
|  2> ! sarc2-dkh-qzvp
|  3> ! tightscf
|  4> ! nori
|  5> ! pal8
|  6> 
|  7> %maxcore 2000
|  8> 
|  9> %rel
| 10>   method DKH 
| 11>   picturechange 2
| 12> end
| 13> 
| 14> %output
| 15>   Print[ P_ReducedOrbPopMO_M] 1
| 16> end
| 17> 
| 18> %casscf
| 19>   nel     1
| 20>   norb    7
| 21>   mult    2
| 22>   nroots  7
| 23>   maxiter 120
| 24>   printwf det
| 25>   actorbs forbs
| 26>   ci
| 27>    TPrintWF   0
| 28>   end
| 29>   rel
| 30>     dosoc true
| 31>     tprint 0.0000
| 32>     dosusceptibility true
| 33>     SUSTempMIN 1.0
| 34>     SUSTempMAX 300
| 35>   end
| 36>   aniso
| 37>     doaniso true
| 38>     quax 4
| 39>     mltp 2, 2, 2, 2, 2, 2, 2
| 40>     CRYS_element "Ce"
| 41>     CRYS_charge 3
| 42>     TINT 0, 300, 301
| 43>   end
| 44> end
| 45> 
| 46> *xyz 3 2
| 47> Ce    0.000000000000      0.000000000000      0.000000000000
| 48> Q -2 -3.000000000000      0.000000000000      0.000000000000
| 49> Q -2  3.000000000000      0.000000000000      0.000000000000
| 50> Q -2  0.000000000000      0.000000000000      3.000000000000
| 51> Q -2  0.000000000000      0.000000000000     -3.000000000000
| 52> Q -2  0.000000000000     -3.000000000000      0.000000000000
| 53> Q -2  0.000000000000      3.000000000000      0.000000000000
| 54> *
| 55> 
| 56> 
| 57> 
| 58>                          ****END OF INPUT****
================================================================================

                       ****************************
                       * Single Point Calculation *
                       ****************************

---------------------------------
CARTESIAN COORDINATES (ANGSTROEM)
---------------------------------
  Ce     0.000000    0.000000    0.000000
  Q     -3.000000    0.000000    0.000000
  Q      3.000000    0.000000    0.000000
  Q      0.000000    0.000000    3.000000
  Q      0.000000    0.000000   -3.000000
  Q      0.000000   -3.000000    0.000000
  Q      0.000000    3.000000    0.000000

----------------------------
CARTESIAN COORDINATES (A.U.)
----------------------------
  NO LB      ZA    FRAG     MASS         X           Y           Z
   0 Ce   58.0000    0   140.120    0.000000    0.000000    0.000000
   1 Q    -2.0000    0     0.000   -5.669178    0.000000    0.000000
   2 Q    -2.0000    0     0.000    5.669178    0.000000    0.000000
   3 Q    -2.0000    0     0.000    0.000000    0.000000    5.669178
   4 Q    -2.0000    0     0.000    0.000000    0.000000   -5.669178
   5 Q    -2.0000    0     0.000    0.000000   -5.669178    0.000000
   6 Q    -2.0000    0     0.000    0.000000    5.669178    0.000000

--------------------------------
INTERNAL COORDINATES (ANGSTROEM)
--------------------------------
 Ce     0   0   0     0.000000000000     0.00000000     0.00000000
 Q      1   0   0     3.000000000000     0.00000000     0.00000000
 Q      1   2   0     3.000000000000   180.00000000     0.00000000
 Q      1   2   3     3.000000000000    90.00000000     0.00000000
 Q      1   2   4     3.000000000000    90.00000000   180.00000000
 Q      1   2   4     3.000000000000    90.00000000    90.00000000
 Q      1   2   4     3.000000000000    90.00000000   270.00000000

---------------------------
INTERNAL COORDINATES (A.U.)
---------------------------
 Ce     0   0   0     0.000000000000     0.00000000     0.00000000
 Q      1   0   0     5.669178401764     0.00000000     0.00000000
 Q      1   2   0     5.669178401764   180.00000000     0.00000000
 Q      1   2   3     5.669178401764    90.00000000     0.00000000
 Q      1   2   4     5.669178401764    90.00000000   180.00000000
 Q      1   2   4     5.669178401764    90.00000000    90.00000000
 Q      1   2   4     5.669178401764    90.00000000   270.00000000

---------------------
BASIS SET INFORMATION
---------------------
There are 2 groups of distinct atoms

 Group   1 Type Ce  : 23s16p12d7f3g2h contracted to 18s12p9d4f3g2h pattern {611111111111111111/511111111111/411111111/4111/111/11}
 Group   2 Type Q,> :  contracted to  pattern {}

Atom   0Ce   basis set group =>   1
Atom   1Q    basis set group =>   2
Atom   2Q    basis set group =>   2
Atom   3Q    basis set group =>   2
Atom   4Q    basis set group =>   2
Atom   5Q    basis set group =>   2
Atom   6Q    basis set group =>   2

Checking for AutoStart:
The File: cerium.gbw exists
Trying to determine its content:
     ... Fine, the file contains calculation information
     ... Fine, the calculation information was read
     ... Fine, the file contains a basis set
     ... Fine, the basis set was read
     ... Fine, the file contains a geometry
     ... Fine, the geometry was read
     ... Fine, the file contains a set of orbitals
     ... Fine, the orbitals can be read
     => possible old guess file was deleted
     => GBW file was renamed to GES file
     => GES file is set as startup file
     => Guess is set to MORead
     ... now leaving AutoStart



           ************************************************************
           *        Program running with 8 parallel MPI-processes     *
           *              working on a common directory               *
           ************************************************************
------------------------------------------------------------------------------
                             ORCA STARTUP CALCULATIONS
------------------------------------------------------------------------------
------------------------------------------------------------------------------
                   ___                                                        
                  /   \      - P O W E R E D   B Y -                         
                 /     \                                                     
                 |  |  |   _    _      __       _____    __    __             
                 |  |  |  | |  | |    /  \     |  _  \  |  |  /  |          
                  \  \/   | |  | |   /    \    | | | |  |  | /  /          
                 / \  \   | |__| |  /  /\  \   | |_| |  |  |/  /          
                |  |  |   |  __  | /  /__\  \  |    /   |      \           
                |  |  |   | |  | | |   __   |  |    \   |  |\   \          
                \     /   | |  | | |  |  |  |  | |\  \  |  | \   \       
                 \___/    |_|  |_| |__|  |__|  |_| \__\ |__|  \__/        
                                                                              
                      - O R C A' S   B I G   F R I E N D -                    
                                      &                                       
                       - I N T E G R A L  F E E D E R -                       
                                                                              
 v1 FN, 2020, v2 2021, v3 2022-2024                                           
------------------------------------------------------------------------------


----------------------
SHARK INTEGRAL PACKAGE
----------------------

Number of atoms                             ...      7
Number of basis functions                   ...    176
Number of shells                            ...     48
Maximum angular momentum                    ...      5
Integral batch strategy                     ... SHARK/LIBINT Hybrid
RI-J (if used) integral strategy            ... SPLIT-RIJ (Revised 2003 algorithm where possible)
Printlevel                                  ...      1
Contraction scheme used                     ... SEGMENTED contraction
Prescreening option                         ... SCHWARTZ
   Thresh                                   ... 2.500e-11
   Tcut                                     ... 2.500e-12
   Tpresel                                  ... 2.500e-12 
Coulomb Range Separation                    ... NOT USED
Exchange Range Separation                   ... NOT USED
Multipole approximations                    ... NOT USED
Finite Nucleus Model                        ... NOT USED
CABS basis                                  ... NOT available
Auxiliary Coulomb fitting basis             ... NOT available
Auxiliary J/K fitting basis                 ... NOT available
Auxiliary Correlation fitting basis         ... NOT available
Auxiliary 'external' fitting basis          ... NOT available

Checking pre-screening integrals            ... done (  0.0 sec) Dimension = 48
   => SHARK Basis and OBASIS are compatible. Storing Pre-screening
Shell pair information
Shell pair cut-off parameter TPreSel        ...   2.5e-12
Total number of shell pairs                 ...      1176
Shell pairs after pre-screening             ...      1174
Total number of primitive shell pairs       ...      2053
Primitive shell pairs kept                  ...      2041
          la=0 lb=0:    171 shell pairs
          la=1 lb=0:    216 shell pairs
          la=1 lb=1:     78 shell pairs
          la=2 lb=0:    162 shell pairs
          la=2 lb=1:    108 shell pairs
          la=2 lb=2:     45 shell pairs
          la=3 lb=0:     72 shell pairs
          la=3 lb=1:     48 shell pairs
          la=3 lb=2:     36 shell pairs
          la=3 lb=3:     10 shell pairs
          la=4 lb=0:     53 shell pairs
          la=4 lb=1:     36 shell pairs
          la=4 lb=2:     27 shell pairs
          la=4 lb=3:     12 shell pairs
          la=4 lb=4:      6 shell pairs
          la=5 lb=0:     35 shell pairs
          la=5 lb=1:     24 shell pairs
          la=5 lb=2:     18 shell pairs
          la=5 lb=3:      8 shell pairs
          la=5 lb=4:      6 shell pairs
          la=5 lb=5:      3 shell pairs

Checking whether 4 symmetric matrices of dimension 176 fit in memory
:Max Core in MB      =   2000.00
 MB in use           =      7.26
 MB left             =   1992.74
 MB needed           =      0.48
 Data fit in memory  = YES
Calculating Nuclear repulsion               ... done (  0.0 sec) ENN=   -115.723801229987 Eh

Diagonalization of the overlap matrix:
Smallest eigenvalue                        ... 1.265e-03
Time for diagonalization                   ...    0.001 sec
Threshold for overlap eigenvalues          ... 1.000e-07
Number of eigenvalues below threshold      ... 0
Time for construction of square roots      ...    0.001 sec
Total time needed                          ...    0.002 sec

-------------------
DFT GRID GENERATION
-------------------

General Integration Accuracy     IntAcc      ... 4.388
Radial Grid Type                 RadialGrid  ... OptM3 with GC (2021)
Angular Grid (max. ang.)         AngularGrid ... 4 (Lebedev-302)
Angular grid pruning method      GridPruning ... 4 (adaptive)
Weight generation scheme         WeightScheme... mBecke (2022)
Basis function cutoff            BFCut       ... 1.0000e-11
Integration weight cutoff        WCut        ... 1.0000e-14
Partially contracted basis set               ... off
Rotationally invariant grid construction     ... off
Angular grids for H and He will be reduced by one unit
Core-polarized basis detected: some atoms will have their core
                               angular grid increased.
Steep s-basis detected: some atoms will have their radial
                        grid points doubled.

Total number of grid points                  ...    29240
Total number of batches                      ...      460
Average number of points per batch           ...       63
Average number of grid points per atom       ...     4177
Grids setup in   0.1 sec
Initializing property integral containers    ... done (  0.0 sec)

SHARK setup successfully completed in   0.2 seconds

Maximum memory used throughout the entire STARTUP-calculation: 38.2 MB


           ************************************************************
           *        Program running with 8 parallel MPI-processes     *
           *              working on a common directory               *
           ************************************************************
------------------------------------------------------------------------------
                          ORCA RELATIVISTIC HAMILTONIAN
------------------------------------------------------------------------------

Relativistic Method            ... DKH
Order of DKH treatment         ...   2
Treatment of potential         ... V(e,N)
Eps parameter for DKH          ...   0.00000000010000
Nucleus model                  ... Point Nucleus
Speed of light used            ... 137.03598950000000


            ************************************************
            *        DOUGLAS-KROLL-HESS HAMILTONIAN        *
            *   Programmed by FN according to literature   *
            *        procedures. Special thanks to         *
            *       B.A. Hess, M. Reiher and A. Wolf       *
            *     University Erlangen-Nuernberg/Bonn       *
            ************************************************

Uncontracting the basis (first version)        ... done
Number of contracted basis functions           ...  176
Number of uncontracted basis functions         ...  229
Initializing the DKH file                      ... done
Calculating the relativistic integrals         ... done
Storing DKH matrices                           ... done
Computing the DKH transformation               ... done
Storing the transformation variables           ... done
Transforming V and pVp to p**2 space           ... done
First transformation of V and pVp              ... done
Second transformation of Veff                  ... done
Adding kinetic energy                          ... done
Back transformation of Veff to r-space         ... done
Recovering DKH matrices                        ... done
Recontracting the H-matrix (first version)     ... done
Computing the DKH correction to the H-matrix   ... done
Reading the original H-matrix                  ... done
Adding DKH correction to the H-matrix          ... done
Storing the new modified H-matrix              ... done

Maximum memory used throughout the entire REL-calculation: 39.8 MB


           ************************************************************
           *        Program running with 8 parallel MPI-processes     *
           *              working on a common directory               *
           ************************************************************
-------------------------------------------------------------------------------
                                 ORCA GUESS
                   Start orbitals & Density for SCF / CASSCF
-------------------------------------------------------------------------------

------------
SCF SETTINGS
------------
Hamiltonian:
 Ab initio Hamiltonian  Method          .... Hartree-Fock(GTOs)

Relativistic Settings:
 Scalar relativistic method             .... Douglas-Kroll-Hess
 Order of DKH procedure    Order        ....    2
 Mode of DKH-treatment                  .... V=V(e,N)
 Speed of light used       Velit        ....       137.035989
 Cutoff-constant           Eps          ....            1e-10 


General Settings:
 Integral files         IntName         .... cerium
 Hartree-Fock type      HFTyp           .... CASSCF
 Total Charge           Charge          ....    3
 Multiplicity           Mult            ....    2
 Number of Electrons    NEL             ....   55
 Basis Dimension        Dim             ....  176
 Nuclear Repulsion      ENuc            ....   -115.7238012300 Eh

---------------------
INITIAL GUESS: MOREAD
---------------------
Guess MOs are being read from file: cerium.ges
Input Geometry matches current geometry (good)
Input basis set matches current basis set (good)
Occupation numbers will be reassigned to an Aufbau configuration
MOs were renormalized
Gram-Schmidt orthogonalization of all MOs with pivot on actives
                      ------------------
                      INITIAL GUESS DONE (   0.0 sec)
                      ------------------
             **** ENERGY FILE WAS UPDATED (cerium.en.tmp) ****
Finished Guess after   0.1 sec
Maximum memory used throughout the entire GUESS-calculation: 17.0 MB


           ************************************************************
           *        Program running with 8 parallel MPI-processes     *
           *              working on a common directory               *
           ************************************************************
-------------------------------------------------------------------------------
                              ORCA-CASSCF
-------------------------------------------------------------------------------

Building the CAS space              ... done (7 configurations for Mult=2)
Memory for address arrays  		      ... done
Make address arrays			      ... done
Memory for buffers 			      ... done
Setting up spin-function prototypes	      ... (MAXOPEN=1) 1 3 done
Trivial cases - DOMO's			      ... done (  0.0 MB)
Number of open shells			    ...  1
domo->virtual excitations			... done (  0.0 MB)
domo->somo excitations				... done (  0.0 MB)
somo->virtual excitations			... done (  0.0 MB)
somo->somo excitations				... done (  0.0 MB)
Coupling container construction done

SYSTEM-SPECIFIC SETTINGS:
Number of active electrons          ...    1
Number of active orbitals           ...    7
Total number of electrons           ...   55
Total number of orbitals            ...  176

Determined orbital ranges:
   Internal       0 -   26 (  27 orbitals)
   Active        27 -   33 (   7 orbitals)
   External      34 -  175 ( 142 orbitals)
Number of rotation parameters      ...   5017

CI-STEP:
CI strategy                         ... General CI
Number of multiplicity blocks       ...    1
BLOCK  0 WEIGHT=   1.0000
  Multiplicity                      ...    2
  #(Configurations)                 ...    7
  #(CSFs)                           ...    7
  #(Roots)                          ...    7
    ROOT=0 WEIGHT=    0.142857
    ROOT=1 WEIGHT=    0.142857
    ROOT=2 WEIGHT=    0.142857
    ROOT=3 WEIGHT=    0.142857
    ROOT=4 WEIGHT=    0.142857
    ROOT=5 WEIGHT=    0.142857
    ROOT=6 WEIGHT=    0.142857

  PrintLevel                        ...    1
  N(GuessMat)                       ...      2048
  MaxDim(CI)                        ...        10
  MaxIter(CI)                       ...        64
  Energy Tolerance CI               ...  2.50e-09
  Residual Tolerance CI             ...  2.50e-09
  Shift(CI)                         ...  1.00e-04

INTEGRAL-TRANSFORMATION-STEP:
  Algorithm                         ... EXACT

ORBITAL-IMPROVEMENT-STEP:
  Algorithm                         ... SuperCI(PT)
  Default Parametrization           ... CAYLEY
  Act-Act rotations                 ... depends on algorithm used

  Note: SuperCI(PT) will ignore FreezeIE, FreezeAct and FreezeGrad. In general Default settings are encouraged.
        In conjunction with ShiftUp, ShiftDn or GradScaling the performance of SuperCI(PT) is less optimal.  

  MaxRot                            ... 2.00e-01 
  Max. no of vectors (DIIS)         ... 15
  DThresh (cut-off) metric          ... 1.00e-06
  Switch step at gradient           ...  3.00e-02 
  Switch step at iteration          ...        50   
  Switch step to                    ... SuperCI(PT)    

SCF-SETTINGS:
  Incremental                       ... on
  RIJCOSX approximation             ... off
  RI-JK approximation               ... off
  AO integral handling              ... DIRECT
  Integral Neglect Thresh           ...  2.50e-11
  Primitive cutoff TCut             ...  2.50e-12
  Energy convergence tolerance      ...  2.50e-08
  Orbital gradient convergence      ...  2.50e-04
  Max. number of iterations         ...       120  


FINAL ORBITALS:
  Active   Orbitals                 ... f-orbitals 
  Internal Orbitals                 ... canonical 
  External Orbitals                 ... canonical 

------------------
CAS-SCF ITERATIONS
------------------


MACRO-ITERATION   1: 
   --- Inactive Energy E0 = -8851.58234093 Eh
CI-ITERATION   0: 
 -8850.615094968   0.000000000002 (    0.00)
 -8850.613610088   0.000000000006
 -8850.613609931   0.000000000011
 -8850.613609767   0.000000000009
 -8850.612167558   0.000000000010
 -8850.612167533   0.000000000013
 -8850.612167416   0.000000000002
   CI-PROBLEM SOLVED
   DENSITIES MADE

                 <<<<<<<<<<<<<<<<<<INITIAL CI STATE CHECK>>>>>>>>>>>>>>>>>>

BLOCK  0 MULT= 2 NROOTS= 7 
ROOT   0:  E=   -8850.6150949676 Eh
      1.00000 [     0]: 1000000
      0.00000 [     4]: 0000100
      0.00000 [     2]: 0010000
      0.00000 [     5]: 0000010
      0.00000 [     6]: 0000001
      0.00000 [     3]: 0001000
      0.00000 [     1]: 0100000
ROOT   1:  E=   -8850.6136100878 Eh  0.040 eV    325.9 cm**-1
      0.99998 [     1]: 0100000
      0.00002 [     3]: 0001000
      0.00000 [     5]: 0000010
      0.00000 [     6]: 0000001
      0.00000 [     2]: 0010000
      0.00000 [     0]: 1000000
      0.00000 [     4]: 0000100
ROOT   2:  E=   -8850.6136099307 Eh  0.040 eV    325.9 cm**-1
      1.00000 [     2]: 0010000
      0.00000 [     3]: 0001000
      0.00000 [     4]: 0000100
      0.00000 [     1]: 0100000
      0.00000 [     0]: 1000000
      0.00000 [     6]: 0000001
      0.00000 [     5]: 0000010
ROOT   3:  E=   -8850.6136097674 Eh  0.040 eV    326.0 cm**-1
      0.99998 [     3]: 0001000
      0.00002 [     1]: 0100000
      0.00000 [     2]: 0010000
      0.00000 [     5]: 0000010
      0.00000 [     6]: 0000001
      0.00000 [     0]: 1000000
      0.00000 [     4]: 0000100
ROOT   4:  E=   -8850.6121675579 Eh  0.080 eV    642.5 cm**-1
      1.00000 [     4]: 0000100
      0.00000 [     5]: 0000010
      0.00000 [     6]: 0000001
      0.00000 [     0]: 1000000
      0.00000 [     2]: 0010000
      0.00000 [     3]: 0001000
      0.00000 [     1]: 0100000
ROOT   5:  E=   -8850.6121675331 Eh  0.080 eV    642.5 cm**-1
      0.99994 [     5]: 0000010
      0.00006 [     6]: 0000001
      0.00000 [     4]: 0000100
      0.00000 [     1]: 0100000
      0.00000 [     3]: 0001000
      0.00000 [     0]: 1000000
      0.00000 [     2]: 0010000
ROOT   6:  E=   -8850.6121674163 Eh  0.080 eV    642.5 cm**-1
      0.99994 [     6]: 0000001
      0.00006 [     5]: 0000010
      0.00000 [     4]: 0000100
      0.00000 [     1]: 0100000
      0.00000 [     3]: 0001000
      0.00000 [     0]: 1000000
      0.00000 [     2]: 0010000

                 <<<<<<<<<<<<<<<<<<INITIAL CI STATE CHECK>>>>>>>>>>>>>>>>>>

   E(CAS)= -8850.613203892 Eh DE=    0.000000e+00
   --- Energy gap subspaces: Ext-Act = -0.277   Act-Int = 1.504
   N(occ)=  0.14286 0.14286 0.14286 0.14286 0.14286 0.14286 0.14286
   ||g|| =     2.189309e+01 Max(G)=   -1.187633e+01 Rot=175,0
   --- Orbital Update [SuperCI(PT)]
   --- Canonicalize Internal Space
   --- Canonicalize External Space
   --- SX_PT (Skipped TA=0 IT=0): ||X|| =      0.287412553 Max(X)(61,27) =      0.070860388 
   --- SFit(Active Orbitals)

MACRO-ITERATION   2: 
   --- Inactive Energy E0 = -8851.42201156 Eh
CI-ITERATION   0: 
 -8850.758356461   0.000000000008 (    0.00)
 -8850.757275440   0.000000000005
 -8850.757275430   0.000000000003
 -8850.757275419   0.000000000005
 -8850.756197033   0.000000000005
 -8850.756197031   0.000000000004
 -8850.756197026   0.000000000000
   CI-PROBLEM SOLVED
   DENSITIES MADE
   E(CAS)= -8850.756967689 Eh DE=   -1.437638e-01
   --- Energy gap subspaces: Ext-Act = -0.001   Act-Int = 1.273
   N(occ)=  0.14286 0.14286 0.14286 0.14286 0.14286 0.14286 0.14286
   ||g|| =     1.559567e+00 Max(G)=   -2.671731e-01 Rot=93,18
   --- Orbital Update [SuperCI(PT)]
   --- Canonicalize Internal Space
   --- Canonicalize External Space
   --- SX_PT (Skipped TA=0 IT=0): ||X|| =      0.116402087 Max(X)(61,27) =      0.031155526 
   --- SFit(Active Orbitals)

MACRO-ITERATION   3: 
   --- Inactive Energy E0 = -8851.51504999 Eh
CI-ITERATION   0: 
 -8850.780522251   0.000000000007 (    0.00)
 -8850.779237226   0.000000000014
 -8850.779237219   0.000000000007
 -8850.779237211   0.000000000008
 -8850.777984088   0.000000000010
 -8850.777984087   0.000000000007
 -8850.777984082   0.000000000001
   CI-PROBLEM SOLVED
   DENSITIES MADE
   E(CAS)= -8850.778883735 Eh DE=   -2.191605e-02
   --- Energy gap subspaces: Ext-Act = -0.074   Act-Int = 1.340
   N(occ)=  0.14286 0.14286 0.14286 0.14286 0.14286 0.14286 0.14286
   ||g|| =     2.561052e-01 Max(G)=   -4.406750e-02 Rot=152,13
   --- Orbital Update [SuperCI(PT)]
   --- Canonicalize Internal Space
   --- Canonicalize External Space
   --- SX_PT (Skipped TA=0 IT=0): ||X|| =      0.011251751 Max(X)(35,31) =      0.004231563 
   --- SFit(Active Orbitals)

MACRO-ITERATION   4: 
   --- Inactive Energy E0 = -8851.50610415 Eh
CI-ITERATION   0: 
 -8850.780688926   0.000000000005 (    0.00)
 -8850.779423039   0.000000000004
 -8850.779423037   0.000000000005
 -8850.779423034   0.000000000007
 -8850.778195281   0.000000000009
 -8850.778195280   0.000000000006
 -8850.778195279   0.000000000002
   CI-PROBLEM SOLVED
   DENSITIES MADE
   E(CAS)= -8850.779077694 Eh DE=   -1.939588e-04
   --- Energy gap subspaces: Ext-Act = -0.068   Act-Int = 1.334
   N(occ)=  0.14286 0.14286 0.14286 0.14286 0.14286 0.14286 0.14286
   ||g|| =     1.182045e-01 Max(G)=   -1.666523e-02 Rot=153,12
   --- Orbital Update [SuperCI(PT)]
   --- Canonicalize Internal Space
   --- Canonicalize External Space
   --- SX_PT (Skipped TA=0 IT=0): ||X|| =      0.008246939 Max(X)(61,27) =      0.002367153 
   --- SFit(Active Orbitals)

MACRO-ITERATION   5: 
   --- Inactive Energy E0 = -8851.50885883 Eh
CI-ITERATION   0: 
 -8850.780764108   0.000000000003 (    0.00)
 -8850.779490608   0.000000000005
 -8850.779490608   0.000000000008
 -8850.779490608   0.000000000013
 -8850.778256733   0.000000000004
 -8850.778256732   0.000000000008
 -8850.778256732   0.000000000001
   CI-PROBLEM SOLVED
   DENSITIES MADE
   E(CAS)= -8850.779143730 Eh DE=   -6.603604e-05
   --- Energy gap subspaces: Ext-Act = -0.072   Act-Int = 1.338
   N(occ)=  0.14286 0.14286 0.14286 0.14286 0.14286 0.14286 0.14286
   ||g|| =     2.751120e-02 Max(G)=   -4.981472e-03 Rot=152,13
   --- Orbital Update [SuperCI(PT)]
   --- Canonicalize Internal Space
   --- Canonicalize External Space
   --- SX_PT (Skipped TA=0 IT=0): ||X|| =      0.000569452 Max(X)(36,32) =     -0.000295538 
   --- SFit(Active Orbitals)

MACRO-ITERATION   6: 
   --- Inactive Energy E0 = -8851.50866206 Eh
CI-ITERATION   0: 
 -8850.780764725   0.000000000004 (    0.00)
 -8850.779491697   0.000000000012
 -8850.779491696   0.000000000008
 -8850.779491696   0.000000000002
 -8850.778258345   0.000000000005
 -8850.778258344   0.000000000008
 -8850.778258344   0.000000000002
   CI-PROBLEM SOLVED
   DENSITIES MADE
   E(CAS)= -8850.779144976 Eh DE=   -1.245800e-06
   --- Energy gap subspaces: Ext-Act = -0.072   Act-Int = 1.338
   N(occ)=  0.14286 0.14286 0.14286 0.14286 0.14286 0.14286 0.14286
   ||g|| =     8.186900e-03 Max(G)=   -1.484593e-03 Rot=153,12
   --- Orbital Update [SuperCI(PT)]
   --- Canonicalize Internal Space
   --- Canonicalize External Space
   --- SX_PT (Skipped TA=0 IT=0): ||X|| =      0.000115262 Max(X)(35,32) =      0.000045303 
   --- SFit(Active Orbitals)

MACRO-ITERATION   7: 
   --- Inactive Energy E0 = -8851.50873855 Eh
CI-ITERATION   0: 
 -8850.780765105   0.000000000004 (    0.00)
 -8850.779491852   0.000000000008
 -8850.779491852   0.000000000006
 -8850.779491852   0.000000000006
 -8850.778258282   0.000000000004
 -8850.778258282   0.000000000007
 -8850.778258281   0.000000000003
   CI-PROBLEM SOLVED
   DENSITIES MADE
   E(CAS)= -8850.779145070 Eh DE=   -9.388532e-08
   --- Energy gap subspaces: Ext-Act = -0.072   Act-Int = 1.338
   N(occ)=  0.14286 0.14286 0.14286 0.14286 0.14286 0.14286 0.14286
   ||g|| =     1.746684e-03 Max(G)=    2.964539e-04 Rot=153,12
   --- Orbital Update [SuperCI(PT)]
   --- Canonicalize Internal Space
   --- Canonicalize External Space
   --- SX_PT (Skipped TA=0 IT=0): ||X|| =      0.000068375 Max(X)(61,27) =     -0.000019611 
Warning: badly conditioned DIIS matrix, 1 vectors out of 7 destroyed
   --- SFit(Active Orbitals)

MACRO-ITERATION   8: 
   --- Inactive Energy E0 = -8851.50871339 Eh
CI-ITERATION   0: 
 -8850.780765043   0.000000000003 (    0.00)
 -8850.779491844   0.000000000008
 -8850.779491844   0.000000000011
 -8850.779491843   0.000000000011
 -8850.778258329   0.000000000004
 -8850.778258328   0.000000000013
 -8850.778258328   0.000000000002
   CI-PROBLEM SOLVED
   DENSITIES MADE
   E(CAS)= -8850.779145077 Eh DE=   -7.628842e-09
   --- Energy gap subspaces: Ext-Act = -0.072   Act-Int = 1.338
   N(occ)=  0.14286 0.14286 0.14286 0.14286 0.14286 0.14286 0.14286
   ||g|| =     6.066857e-05 Max(G)=    1.120912e-05 Rot=152,13
                     ---- THE CAS-SCF ENERGY   HAS CONVERGED ----
                     ---- THE CAS-SCF GRADIENT HAS CONVERGED ----
                            --- FINALIZING ORBITALS ---
                    ---- DOING ONE FINAL ITERATION FOR PRINTING ----
   --- f-orbitals (depends on the molecular axis frame)
 L-Center:  0 Ce [0.000, 0.000, 0.000] 
   --- The active space contains 7 f Orbitals : OK
 Setting 27 active MO to AO f0      (99)
 Setting 28 active MO to AO f+1     (100)
 Setting 29 active MO to AO f-1     (101)
 Setting 30 active MO to AO f+2     (102)
 Setting 31 active MO to AO f-2     (103)
 Setting 32 active MO to AO f+3     (104)
 Setting 33 active MO to AO f-3     (105)
   --- Canonicalize Internal Space
   --- Canonicalize External Space

MACRO-ITERATION   9: 
   --- Inactive Energy E0 = -8851.50871339 Eh
   --- All densities will be recomputed
CI-ITERATION   0: 
 -8850.780765044   0.000000000005 (    0.00)
 -8850.779491845   0.000000000008
 -8850.779491844   0.000000000008
 -8850.779491844   0.000000000009
 -8850.778258329   0.000000000012
 -8850.778258329   0.000000000007
 -8850.778258328   0.000000000004
   CI-PROBLEM SOLVED
   DENSITIES MADE
   E(CAS)= -8850.779145078 Eh DE=   -4.110916e-10
   --- Energy gap subspaces: Ext-Act = -0.591   Act-Int = 1.337
   N(occ)=  0.14286 0.14286 0.14286 0.14286 0.14286 0.14286 0.14286
   ||g|| =     6.067792e-05 Max(G)=   -1.120810e-05 Rot=150,10
--------------
CASSCF RESULTS
--------------

Final CASSCF energy       : -8850.779145078 Eh -240841.9447 eV

----------------
ORBITAL ENERGIES
----------------

  NO   OCC          E(Eh)            E(eV) 
   0   2.0000   -1490.930554    -40570.2829 
   1   2.0000    -241.808124     -6579.9336 
   2   2.0000    -216.514010     -5891.6457 
   3   2.0000    -216.514010     -5891.6457 
   4   2.0000    -216.514010     -5891.6457 
   5   2.0000     -52.811897     -1437.0848 
   6   2.0000     -44.537085     -1211.9157 
   7   2.0000     -44.537085     -1211.9157 
   8   2.0000     -44.537085     -1211.9157 
   9   2.0000     -32.650312      -888.4602 
  10   2.0000     -32.650312      -888.4602 
  11   2.0000     -32.650312      -888.4602 
  12   2.0000     -32.650305      -888.4600 
  13   2.0000     -32.650305      -888.4600 
  14   2.0000     -10.418905      -283.5128 
  15   2.0000      -7.603602      -206.9045 
  16   2.0000      -7.603602      -206.9045 
  17   2.0000      -7.603602      -206.9045 
  18   2.0000      -3.402699       -92.5922 
  19   2.0000      -3.402699       -92.5922 
  20   2.0000      -3.402699       -92.5922 
  21   2.0000      -3.402478       -92.5861 
  22   2.0000      -3.402478       -92.5861 
  23   2.0000      -0.595711       -16.2101 
  24   2.0000       0.215820         5.8728 
  25   2.0000       0.215820         5.8728 
  26   2.0000       0.215820         5.8728 
  27   0.1429       1.557530        42.3825 
  28   0.1429       1.556196        42.3462 
  29   0.1429       1.556196        42.3462 
  30   0.1429       1.555393        42.3244 
  31   0.1429       1.553226        42.2654 
  32   0.1429       1.556727        42.3607 
  33   0.1429       1.556727        42.3607 
  34   0.0000       0.966914        26.3111 
  35   0.0000       0.966914        26.3111 
  36   0.0000       0.966914        26.3111 
  37   0.0000       1.090541        29.6751 
  38   0.0000       1.274785        34.6887 
  39   0.0000       1.274785        34.6887 
  40   0.0000       1.274785        34.6887 
  41   0.0000       1.433220        38.9999 
  42   0.0000       1.433220        38.9999 
  43   0.0000       1.433220        38.9999 
  44   0.0000       1.452313        39.5194 
  45   0.0000       1.452313        39.5194 
  46   0.0000       1.482067        40.3291 
  47   0.0000       1.482067        40.3291 
  48   0.0000       1.484277        40.3892 
  49   0.0000       1.545872        42.0653 
  50   0.0000       1.545872        42.0653 
  51   0.0000       1.545872        42.0653 
  52   0.0000       1.791519        48.7497 
  53   0.0000       1.791519        48.7497 
  54   0.0000       1.791519        48.7497 
  55   0.0000       1.824448        49.6457 
  56   0.0000       1.831138        49.8278 
  57   0.0000       1.831138        49.8278 
  58   0.0000       1.831138        49.8278 
  59   0.0000       2.042432        55.5774 
  60   0.0000       2.042432        55.5774 
  61   0.0000       2.083024        56.6820 
  62   0.0000       2.113705        57.5168 
  63   0.0000       2.113705        57.5168 
  64   0.0000       2.113705        57.5168 
  65   0.0000       2.163479        58.8712 
  66   0.0000       2.163479        58.8712 
  67   0.0000       2.163479        58.8712 
  68   0.0000       2.807831        76.4050 
  69   0.0000       2.807831        76.4050 
  70   0.0000       2.807831        76.4050 
  71   0.0000       2.900939        78.9386 
  72   0.0000       2.900939        78.9386 
  73   0.0000       2.902446        78.9796 
  74   0.0000       2.902446        78.9796 
  75   0.0000       2.902446        78.9796 
  76   0.0000       3.081903        83.8628 
  77   0.0000       3.559872        96.8691 
  78   0.0000       3.572145        97.2030 
  79   0.0000       3.572145        97.2030 
  80   0.0000       3.572145        97.2030 
  81   0.0000       3.591914        97.7409 
  82   0.0000       3.591914        97.7409 
  83   0.0000       3.591914        97.7409 
  84   0.0000       4.579244       124.6076 
  85   0.0000       4.579244       124.6076 
  86   0.0000       4.579244       124.6076 
  87   0.0000       4.581764       124.6761 
  88   0.0000       4.581764       124.6761 
  89   0.0000       4.582705       124.7017 
  90   0.0000       4.582705       124.7017 
  91   0.0000       4.582705       124.7017 
  92   0.0000       4.584175       124.7417 
  93   0.0000       5.974421       162.5723 
  94   0.0000       5.974421       162.5723 
  95   0.0000       5.974421       162.5723 
  96   0.0000       5.995878       163.1561 
  97   0.0000       5.995878       163.1561 
  98   0.0000       7.652652       208.2392 
  99   0.0000       7.656095       208.3329 
 100   0.0000       7.656095       208.3329 
 101   0.0000       7.656095       208.3329 
 102   0.0000       7.660508       208.4530 
 103   0.0000       7.660508       208.4530 
 104   0.0000       7.660508       208.4530 
 105   0.0000       7.677989       208.9287 
 106   0.0000       7.677989       208.9287 
 107   0.0000       7.677989       208.9287 
 108   0.0000       9.279928       252.5197 
 109   0.0000      14.324569       389.7913 
 110   0.0000      14.324569       389.7913 
 111   0.0000      14.324569       389.7913 
 112   0.0000      14.324758       389.7965 
 113   0.0000      14.324758       389.7965 
 114   0.0000      14.324828       389.7984 
 115   0.0000      14.324828       389.7984 
 116   0.0000      14.324828       389.7984 
 117   0.0000      14.324936       389.8013 
 118   0.0000      17.206340       468.2083 
 119   0.0000      17.206340       468.2083 
 120   0.0000      17.206340       468.2083 
 121   0.0000      17.210235       468.3143 
 122   0.0000      17.210235       468.3143 
 123   0.0000      17.383970       473.0419 
 124   0.0000      17.383970       473.0419 
 125   0.0000      17.383970       473.0419 
 126   0.0000      17.383994       473.0425 
 127   0.0000      17.383994       473.0425 
 128   0.0000      17.384112       473.0457 
 129   0.0000      17.384112       473.0457 
 130   0.0000      17.384112       473.0457 
 131   0.0000      17.384164       473.0472 
 132   0.0000      17.384164       473.0472 
 133   0.0000      17.384164       473.0472 
 134   0.0000      31.497355       857.0866 
 135   0.0000      31.497355       857.0866 
 136   0.0000      31.497355       857.0866 
 137   0.0000      43.673594      1188.4189 
 138   0.0000      46.197574      1257.0999 
 139   0.0000      46.197574      1257.0999 
 140   0.0000      46.197574      1257.0999 
 141   0.0000      46.197588      1257.1003 
 142   0.0000      46.197588      1257.1003 
 143   0.0000      46.197662      1257.1023 
 144   0.0000      46.197662      1257.1023 
 145   0.0000      46.197662      1257.1023 
 146   0.0000      46.197693      1257.1031 
 147   0.0000      46.197693      1257.1031 
 148   0.0000      46.197693      1257.1031 
 149   0.0000      59.343522      1614.8193 
 150   0.0000      59.343522      1614.8193 
 151   0.0000      59.343522      1614.8193 
 152   0.0000      59.344187      1614.8374 
 153   0.0000      59.344187      1614.8374 
 154   0.0000      67.783184      1844.4742 
 155   0.0000      67.783184      1844.4742 
 156   0.0000      67.783184      1844.4742 
 157   0.0000      67.783225      1844.4753 
 158   0.0000      67.783225      1844.4753 
 159   0.0000      67.783238      1844.4757 
 160   0.0000      67.783238      1844.4757 
 161   0.0000      67.783238      1844.4757 
 162   0.0000      67.783258      1844.4762 
 163   0.0000     141.277214      3844.3484 
 164   0.0000     141.277214      3844.3484 
 165   0.0000     141.277214      3844.3484 
 166   0.0000     210.507489      5728.2000 
 167   0.0000     604.428437     16447.3339 
 168   0.0000     604.428437     16447.3339 
 169   0.0000     604.428437     16447.3339 
 170   0.0000     819.153890     22290.3106 
 171   0.0000    2552.054250     69444.9267 
 172   0.0000    6579.388294    179034.2574 
 173   0.0000   14635.701119    398257.6745 
 174   0.0000   29192.902089    794379.2513 
 175   0.0000   66331.009530   1804958.5316 


---------------------------------------------
CAS-SCF STATES FOR BLOCK  0 MULT= 2 NROOTS= 7
---------------------------------------------

ROOT   0:  E=   -8850.7807650439 Eh
      1.00000 [     4]: 0000100
      0.00000 [     1]: 0100000
      0.00000 [     3]: 0001000
      0.00000 [     5]: 0000010
      0.00000 [     0]: 1000000
      0.00000 [     6]: 0000001
      0.00000 [     2]: 0010000
ROOT   1:  E=   -8850.7794918445 Eh  0.035 eV    279.4 cm**-1
      0.53765 [     1]: 0100000
      0.32336 [     5]: 0000010
      0.13871 [     3]: 0001000
      0.00017 [     2]: 0010000
      0.00010 [     6]: 0000001
      0.00000 [     0]: 1000000
      0.00000 [     4]: 0000100
ROOT   2:  E=   -8850.7794918439 Eh  0.035 eV    279.4 cm**-1
      0.62353 [     2]: 0010000
      0.37501 [     6]: 0000001
      0.00067 [     3]: 0001000
      0.00049 [     1]: 0100000
      0.00030 [     5]: 0000010
      0.00000 [     4]: 0000100
      0.00000 [     0]: 1000000
ROOT   3:  E=   -8850.7794918438 Eh  0.035 eV    279.4 cm**-1
      0.86061 [     3]: 0001000
      0.08629 [     1]: 0100000
      0.05190 [     5]: 0000010
      0.00074 [     2]: 0010000
      0.00045 [     6]: 0000001
      0.00000 [     4]: 0000100
      0.00000 [     0]: 1000000
ROOT   4:  E=   -8850.7782583290 Eh  0.068 eV    550.2 cm**-1
      0.56430 [     0]: 1000000
      0.27169 [     5]: 0000010
      0.16341 [     1]: 0100000
      0.00038 [     6]: 0000001
      0.00023 [     2]: 0010000
      0.00000 [     3]: 0001000
      0.00000 [     4]: 0000100
ROOT   5:  E=   -8850.7782583286 Eh  0.068 eV    550.2 cm**-1
      0.62375 [     6]: 0000001
      0.37515 [     2]: 0010000
      0.00068 [     5]: 0000010
      0.00041 [     1]: 0100000
      0.00001 [     0]: 1000000
      0.00000 [     3]: 0001000
      0.00000 [     4]: 0000100
ROOT   6:  E=   -8850.7782583282 Eh  0.068 eV    550.2 cm**-1
      0.43569 [     0]: 1000000
      0.35207 [     5]: 0000010
      0.21175 [     1]: 0100000
      0.00031 [     6]: 0000001
      0.00019 [     2]: 0010000
      0.00000 [     3]: 0001000
      0.00000 [     4]: 0000100

----------------------------------------
  Spin-Determinant CI Printing   
----------------------------------------  
ROOT   0:  E=   -8850.7807650439 Eh

   [u000000]      0.000000065
   [0u00000]      0.000000168
   [00u0000]      0.000000003
   [000u000]      0.000000131
   [0000u00]     -1.000000000
   [00000u0]      0.000000116
   [000000u]      0.000000003

ROOT   1:  E=   -8850.7794918445 Eh  0.035 eV    279.4 cm**-1

   [u000000]     -0.000000397
   [0u00000]      0.733247099
   [00u0000]      0.012978088
   [000u000]      0.372444610
   [0000u00]      0.000000106
   [00000u0]     -0.568651011
   [000000u]      0.010064814

ROOT   2:  E=   -8850.7794918439 Eh  0.035 eV    279.4 cm**-1

   [u000000]     -0.000000000
   [0u00000]      0.022197711
   [00u0000]     -0.789637362
   [000u000]     -0.025921058
   [0000u00]     -0.000000006
   [00000u0]     -0.017214858
   [000000u]     -0.612382108

ROOT   3:  E=   -8850.7794918438 Eh  0.035 eV    279.4 cm**-1

   [u000000]     -0.000000028
   [0u00000]      0.293759915
   [00u0000]      0.027273969
   [000u000]     -0.927692358
   [0000u00]     -0.000000098
   [00000u0]     -0.227817343
   [000000u]      0.021151602

ROOT   4:  E=   -8850.7782583290 Eh  0.068 eV    550.2 cm**-1

   [u000000]      0.751198487
   [0u00000]      0.404236109
   [00u0000]     -0.015020594
   [000u000]      0.000000399
   [0000u00]      0.000000177
   [00000u0]      0.521242026
   [000000u]      0.019368333

ROOT   5:  E=   -8850.7782583286 Eh  0.068 eV    550.2 cm**-1

   [u000000]      0.003669105
   [0u00000]      0.020198330
   [00u0000]      0.612492864
   [000u000]      0.000000013
   [0000u00]      0.000000006
   [00000u0]      0.026044737
   [000000u]     -0.789780177

ROOT   6:  E=   -8850.7782583282 Eh  0.068 eV    550.2 cm**-1

   [u000000]      0.660066186
   [0u00000]     -0.460158952
   [00u0000]      0.013689767
   [000u000]     -0.000000271
   [0000u00]     -0.000000103
   [00000u0]     -0.593352641
   [000000u]     -0.017652277



--------------
DENSITY MATRIX
--------------

                  0          1          2          3          4          5    
      0       0.142857  -0.000000   0.000000   0.000000  -0.000000  -0.000000
      1      -0.000000   0.142857   0.000000   0.000000  -0.000000   0.000000
      2       0.000000   0.000000   0.142857  -0.000000  -0.000000  -0.000000
      3       0.000000   0.000000  -0.000000   0.142857  -0.000000   0.000000
      4      -0.000000  -0.000000  -0.000000  -0.000000   0.142857  -0.000000
      5      -0.000000   0.000000  -0.000000   0.000000  -0.000000   0.142857
      6      -0.000000   0.000000   0.000000  -0.000000   0.000000  -0.000000
                  6    
      0      -0.000000
      1       0.000000
      2       0.000000
      3      -0.000000
      4       0.000000
      5      -0.000000
      6       0.142857
Trace of the electron density:  1.000000
Extracting Spin-Density from 2-RDM (MULT=2) ... done

-------------------
SPIN-DENSITY MATRIX
-------------------

                  0          1          2          3          4          5    
      0       0.142857  -0.000000   0.000000   0.000000  -0.000000  -0.000000
      1      -0.000000   0.142857   0.000000   0.000000  -0.000000   0.000000
      2       0.000000   0.000000   0.142857  -0.000000  -0.000000  -0.000000
      3       0.000000   0.000000  -0.000000   0.142857  -0.000000   0.000000
      4      -0.000000  -0.000000  -0.000000  -0.000000   0.142857  -0.000000
      5      -0.000000   0.000000  -0.000000   0.000000  -0.000000   0.142857
      6      -0.000000   0.000000   0.000000  -0.000000   0.000000  -0.000000
                  6    
      0      -0.000000
      1       0.000000
      2       0.000000
      3      -0.000000
      4       0.000000
      5      -0.000000
      6       0.142857
Trace of the spin density:  1.000000

-----------------
ENERGY COMPONENTS
-----------------

One electron energy          : -11906.547419341 Eh     -323993.6268 eV
Two electron energy          :   3171.492075493 Eh       86300.6868 eV
Nuclear repulsion energy     :   -115.723801230 Eh       -3149.0047 eV
                               ----------------
                                -8850.779145078

Kinetic energy               :  10732.768556557 Eh      292053.4801 eV
Potential energy             : -19583.547701635 Eh     -532895.4248 eV
Virial ratio                 :     -1.824650145 
                               ----------------
                                -8850.779145078

Core energy                  :  -8851.508713392 Eh  -240861.7973 eV


----------------------------
LOEWDIN ORBITAL-COMPOSITIONS
----------------------------

                      0         1         2         3         4         5   
                 -1490.93055 -241.80812 -216.51401 -216.51401 -216.51401 -52.81190
                   2.00000   2.00000   2.00000   2.00000   2.00000   2.00000
                  --------  --------  --------  --------  --------  --------
 0 Ce s             100.0     100.0       0.0       0.0       0.0     100.0
 0 Ce pz              0.0       0.0       7.8      79.9      12.3       0.0
 0 Ce px              0.0       0.0      84.4      12.6       3.0       0.0
 0 Ce py              0.0       0.0       7.8       7.5      84.7       0.0

                      6         7         8         9        10        11   
                 -44.53708 -44.53708 -44.53708 -32.65031 -32.65031 -32.65031
                   2.00000   2.00000   2.00000   2.00000   2.00000   2.00000
                  --------  --------  --------  --------  --------  --------
 0 Ce pz             79.4      20.5       0.0       0.0       0.0       0.0
 0 Ce px              4.3      19.3      76.3       0.0       0.0       0.0
 0 Ce py             16.3      60.1      23.6       0.0       0.0       0.0
 0 Ce dxz             0.0       0.0       0.0      38.9      18.6      42.5
 0 Ce dyz             0.0       0.0       0.0       9.6      81.4       9.0
 0 Ce dxy             0.0       0.0       0.0      51.5       0.0      48.5

                     12        13        14        15        16        17   
                 -32.65030 -32.65030 -10.41891  -7.60360  -7.60360  -7.60360
                   2.00000   2.00000   2.00000   2.00000   2.00000   2.00000
                  --------  --------  --------  --------  --------  --------
 0 Ce s               0.0       0.0     100.0       0.0       0.0       0.0
 0 Ce pz              0.0       0.0       0.0      58.7      11.1      30.2
 0 Ce px              0.0       0.0       0.0      28.6      64.7       6.7
 0 Ce py              0.0       0.0       0.0      12.6      24.2      63.1
 0 Ce dz2            59.3      40.7       0.0       0.0       0.0       0.0
 0 Ce dx2y2          40.7      59.3       0.0       0.0       0.0       0.0

                     18        19        20        21        22        23   
                  -3.40270  -3.40270  -3.40270  -3.40248  -3.40248  -0.59571
                   2.00000   2.00000   2.00000   2.00000   2.00000   2.00000
                  --------  --------  --------  --------  --------  --------
 0 Ce s               0.0       0.0       0.0       0.0       0.0     100.0
 0 Ce dz2             0.0       0.0       0.0      31.9      68.1       0.0
 0 Ce dxz            10.4      45.7      43.9       0.0       0.0       0.0
 0 Ce dyz             5.1      54.0      40.9       0.0       0.0       0.0
 0 Ce dx2y2           0.0       0.0       0.0      68.1      31.9       0.0
 0 Ce dxy            84.5       0.3      15.2       0.0       0.0       0.0

                     24        25        26        27        28        29   
                   0.21582   0.21582   0.21582   1.55753   1.55620   1.55620
                   2.00000   2.00000   2.00000   0.14286   0.14286   0.14286
                  --------  --------  --------  --------  --------  --------
 0 Ce pz             13.7      67.7      18.6       0.0       0.0       0.0
 0 Ce px             38.1      31.9      30.0       0.0       0.0       0.0
 0 Ce py             48.2       0.4      51.4       0.0       0.0       0.0
 0 Ce f0              0.0       0.0       0.0     100.0       0.0       0.0
 0 Ce f+1             0.0       0.0       0.0       0.0     100.0       0.0
 0 Ce f-1             0.0       0.0       0.0       0.0       0.0     100.0

                     30        31        32        33        34        35   
                   1.55539   1.55323   1.55673   1.55673   0.96691   0.96691
                   0.14286   0.14286   0.14286   0.14286   0.00000   0.00000
                  --------  --------  --------  --------  --------  --------
 0 Ce pz              0.0       0.0       0.0       0.0       6.8      63.2
 0 Ce px              0.0       0.0       0.0       0.0      55.0       3.9
 0 Ce py              0.0       0.0       0.0       0.0      38.2      32.8
 0 Ce f+2           100.0       0.0       0.0       0.0       0.0       0.0
 0 Ce f-2             0.0     100.0       0.0       0.0       0.0       0.0
 0 Ce f+3             0.0       0.0     100.0       0.0       0.0       0.0
 0 Ce f-3             0.0       0.0       0.0     100.0       0.0       0.0

                     36        37        38        39        40        41   
                   0.96691   1.09054   1.27478   1.27478   1.27478   1.43322
                   0.00000   0.00000   0.00000   0.00000   0.00000   0.00000
                  --------  --------  --------  --------  --------  --------
 0 Ce s               0.0     100.0       0.0       0.0       0.0       0.0
 0 Ce pz             30.0       0.0       0.0       0.0       0.0       0.0
 0 Ce px             41.1       0.0       0.0       0.0       0.0       0.0
 0 Ce py             29.0       0.0       0.0       0.0       0.0       0.0
 0 Ce dxz             0.0       0.0       0.0       0.1      99.8       0.0
 0 Ce dyz             0.0       0.0      74.9      25.1       0.0      18.1
 0 Ce dxy             0.0       0.0      25.1      74.8       0.2      81.9

                     42        43        44        45        46        47   
                   1.43322   1.43322   1.45231   1.45231   1.48207   1.48207
                   0.00000   0.00000   0.00000   0.00000   0.00000   0.00000
                  --------  --------  --------  --------  --------  --------
 0 Ce dz2             0.0       0.0       6.3      93.7      28.4      71.6
 0 Ce dxz             0.0     100.0       0.0       0.0       0.0       0.0
 0 Ce dyz            81.9       0.0       0.0       0.0       0.0       0.0
 0 Ce dx2y2           0.0       0.0      93.7       6.3      71.6      28.4
 0 Ce dxy            18.1       0.0       0.0       0.0       0.0       0.0

                     48        49        50        51        52        53   
                   1.48428   1.54587   1.54587   1.54587   1.79152   1.79152
                   0.00000   0.00000   0.00000   0.00000   0.00000   0.00000
                  --------  --------  --------  --------  --------  --------
 0 Ce s             100.0       0.0       0.0       0.0       0.0       0.0
 0 Ce pz              0.0      13.5      42.1      43.9      21.5      55.1
 0 Ce px              0.0      71.3      28.0       0.2      57.9      37.0
 0 Ce py              0.0      14.7      29.5      55.3      19.8       7.1
 0 Ce f0              0.0       0.1       0.2       0.2       0.2       0.4
 0 Ce f+1             0.0       0.1       0.1       0.0       0.2       0.1
 0 Ce f-1             0.0       0.0       0.1       0.1       0.1       0.0
 0 Ce f+3             0.0       0.2       0.1       0.0       0.3       0.2
 0 Ce f-3             0.0       0.0       0.1       0.2       0.1       0.0

                     54        55        56        57        58        59   
                   1.79152   1.82445   1.83114   1.83114   1.83114   2.04243
                   0.00000   0.00000   0.00000   0.00000   0.00000   0.00000
                  --------  --------  --------  --------  --------  --------
 0 Ce s               0.0     100.0       0.0       0.0       0.0       0.0
 0 Ce pz             22.7       0.0       0.0       0.0       0.0       0.0
 0 Ce px              4.3       0.0       0.0       0.0       0.0       0.0
 0 Ce py             72.3       0.0       0.0       0.0       0.0       0.0
 0 Ce dz2             0.0       0.0       0.0       0.0       0.0      93.1
 0 Ce dxz             0.0       0.0      58.7       0.0      41.3       0.0
 0 Ce dyz             0.0       0.0      11.6      72.4      16.1       0.0
 0 Ce dx2y2           0.0       0.0       0.0       0.0       0.0       6.9
 0 Ce dxy             0.0       0.0      29.8      27.6      42.6       0.0
 0 Ce f0              0.2       0.0       0.0       0.0       0.0       0.0
 0 Ce f-1             0.2       0.0       0.0       0.0       0.0       0.0
 0 Ce f-3             0.4       0.0       0.0       0.0       0.0       0.0

                     60        61        62        63        64        65   
                   2.04243   2.08302   2.11371   2.11371   2.11371   2.16348
                   0.00000   0.00000   0.00000   0.00000   0.00000   0.00000
                  --------  --------  --------  --------  --------  --------
 0 Ce pz              0.0       0.0       0.0       0.0       0.0       0.7
 0 Ce px              0.0       0.0       0.0       0.0       0.0       0.6
 0 Ce dz2             6.9       0.0       0.0       0.0       0.0       0.0
 0 Ce dx2y2          93.1       0.0       0.0       0.0       0.0       0.0
 0 Ce f0              0.0       0.0       0.0       0.0       0.0      51.8
 0 Ce f+1             0.0       0.0      32.6       5.2      24.7      17.4
 0 Ce f-1             0.0       0.0       0.7      45.2      16.6       0.2
 0 Ce f+2             0.0       0.0      46.7      19.3      34.0       0.0
 0 Ce f-2             0.0     100.0       0.0       0.0       0.0       0.0
 0 Ce f+3             0.0       0.0      19.6       3.1      14.8      29.0
 0 Ce f-3             0.0       0.0       0.4      27.1       9.9       0.3

                     66        67        68        69        70        71   
                   2.16348   2.16348   2.80783   2.80783   2.80783   2.90094
                   0.00000   0.00000   0.00000   0.00000   0.00000   0.00000
                  --------  --------  --------  --------  --------  --------
 0 Ce pz              0.1       0.5       0.0       0.0       0.0       0.0
 0 Ce px              0.1       0.6       0.0       0.0       0.0       0.0
 0 Ce py              1.1       0.2       0.0       0.0       0.0       0.0
 0 Ce dz2             0.0       0.0       0.0       0.0       0.0      65.0
 0 Ce dxz             0.0       0.0       0.0     100.0       0.0       0.0
 0 Ce dyz             0.0       0.0      14.2       0.0      85.8       0.0
 0 Ce dx2y2           0.0       0.0       0.0       0.0       0.0      35.0
 0 Ce dxy             0.0       0.0      85.8       0.0      14.2       0.0
 0 Ce f0             10.5      36.4       0.0       0.0       0.0       0.0
 0 Ce f+1             2.4      17.2       0.0       0.0       0.0       0.0
 0 Ce f-1            30.7       6.2       0.0       0.0       0.0       0.0
 0 Ce f+3             4.0      28.6       0.0       0.0       0.0       0.0
 0 Ce f-3            51.1      10.3       0.0       0.0       0.0       0.0

                     72        73        74        75        76        77   
                   2.90094   2.90245   2.90245   2.90245   3.08190   3.55987
                   0.00000   0.00000   0.00000   0.00000   0.00000   0.00000
                  --------  --------  --------  --------  --------  --------
 0 Ce s               0.0       0.0       0.0       0.0     100.0       0.0
 0 Ce pz              0.0      32.7       5.9      61.3       0.0       0.0
 0 Ce px              0.0      43.7      18.2      37.9       0.0       0.0
 0 Ce py              0.0      23.4      75.7       0.7       0.0       0.0
 0 Ce dz2            35.0       0.0       0.0       0.0       0.0       0.0
 0 Ce dx2y2          65.0       0.0       0.0       0.0       0.0       0.0
 0 Ce f-2             0.0       0.0       0.0       0.0       0.0     100.0

                     78        79        80        81        82        83   
                   3.57214   3.57214   3.57214   3.59191   3.59191   3.59191
                   0.00000   0.00000   0.00000   0.00000   0.00000   0.00000
                  --------  --------  --------  --------  --------  --------
 0 Ce py              0.0       0.0       0.0       0.0       0.1       0.0
 0 Ce f0              0.0       0.0       0.0      38.7       0.1      61.1
 0 Ce f+1            54.7       7.4       0.4      22.9       0.1      14.4
 0 Ce f-1             5.9      50.9       5.7       0.0      37.3       0.1
 0 Ce f+2             3.1       6.7      90.2       0.0       0.0       0.0
 0 Ce f+3            32.8       4.5       0.2      38.2       0.1      24.0
 0 Ce f-3             3.5      30.5       3.4       0.0      62.2       0.2

                     84        85        86        87        88        89   
                   4.57924   4.57924   4.57924   4.58176   4.58176   4.58270
                   0.00000   0.00000   0.00000   0.00000   0.00000   0.00000
                  --------  --------  --------  --------  --------  --------
 0 Ce g0              0.0       0.0       0.0      37.4       4.3       0.0
 0 Ce g+1             0.7       0.1      11.6       0.0       0.0      87.3
 0 Ce g-1             0.1      12.3       0.1       0.0       0.0       0.1
 0 Ce g+2             0.0       0.0       0.0      10.4      89.6       0.0
 0 Ce g-2            93.4       0.4       6.1       0.0       0.0       0.0
 0 Ce g+3             5.0       1.0      81.5       0.0       0.0      12.5
 0 Ce g-3             0.7      86.1       0.7       0.0       0.0       0.0
 0 Ce g+4             0.0       0.0       0.0      52.3       6.0       0.0
 0 Ce g-4             0.0       0.0       0.0       0.0       0.0       0.1

                     90        91        92        93        94        95   
                   4.58270   4.58270   4.58417   5.97442   5.97442   5.97442
                   0.00000   0.00000   0.00000   0.00000   0.00000   0.00000
                  --------  --------  --------  --------  --------  --------
 0 Ce dxz             0.0       0.0       0.0       1.3      32.9      65.8
 0 Ce dyz             0.0       0.0       0.0       2.0      66.8      31.2
 0 Ce dxy             0.0       0.0       0.0      96.7       0.3       3.0
 0 Ce g0              0.0       0.0      58.3       0.0       0.0       0.0
 0 Ce g+1             0.0       0.1       0.0       0.0       0.0       0.0
 0 Ce g-1            84.5       2.9       0.0       0.0       0.0       0.0
 0 Ce g-3            12.1       0.4       0.0       0.0       0.0       0.0
 0 Ce g+4             0.0       0.0      41.7       0.0       0.0       0.0
 0 Ce g-4             3.4      96.5       0.0       0.0       0.0       0.0

                     96        97        98        99       100       101   
                   5.99588   5.99588   7.65265   7.65609   7.65609   7.65609
                   0.00000   0.00000   0.00000   0.00000   0.00000   0.00000
                  --------  --------  --------  --------  --------  --------
 0 Ce dz2            58.8      41.2       0.0       0.0       0.0       0.0
 0 Ce dx2y2          41.2      58.8       0.0       0.0       0.0       0.0
 0 Ce f+1             0.0       0.0       0.0       3.4      28.3      30.9
 0 Ce f-1             0.0       0.0       0.0      56.2       6.3       0.0
 0 Ce f+2             0.0       0.0       0.0       4.8      44.7      50.6
 0 Ce f-2             0.0       0.0     100.0       0.0       0.0       0.0
 0 Ce f+3             0.0       0.0       0.0       2.0      17.0      18.5
 0 Ce f-3             0.0       0.0       0.0      33.7       3.8       0.0

                    102       103       104       105       106       107   
                   7.66051   7.66051   7.66051   7.67799   7.67799   7.67799
                   0.00000   0.00000   0.00000   0.00000   0.00000   0.00000
                  --------  --------  --------  --------  --------  --------
 0 Ce pz              0.1       0.0       2.4       1.9      38.9      56.7
 0 Ce px              2.4       0.0       0.1      86.4       2.3       8.8
 0 Ce py              0.0       2.5       0.0       9.2      56.2      32.0
 0 Ce f0              4.1       0.1      93.3       0.0       1.0       1.5
 0 Ce f+1            34.8       0.2       1.5       0.8       0.0       0.1
 0 Ce f-1             0.3      36.3       0.0       0.1       0.5       0.3
 0 Ce f+3            57.9       0.4       2.6       1.4       0.0       0.1
 0 Ce f-3             0.4      60.5       0.0       0.1       0.9       0.5

                    108       109       110       111       112       113   
                   9.27993  14.32457  14.32457  14.32457  14.32476  14.32476
                   0.00000   0.00000   0.00000   0.00000   0.00000   0.00000
                  --------  --------  --------  --------  --------  --------
 0 Ce s             100.0       0.0       0.0       0.0       0.0       0.0
 0 Ce g0              0.0       0.0       0.0       0.0      35.9       5.8
 0 Ce g+1             0.0       0.1      12.4       0.0       0.0       0.0
 0 Ce g-1             0.0      11.6       0.1       0.8       0.0       0.0
 0 Ce g+2             0.0       0.0       0.0       0.0      13.9      86.1
 0 Ce g-2             0.0       6.2       0.3      93.4       0.0       0.0
 0 Ce g+3             0.0       0.8      86.6       0.1       0.0       0.0
 0 Ce g-3             0.0      81.2       0.6       5.6       0.0       0.0
 0 Ce g+4             0.0       0.0       0.0       0.0      50.3       8.1

                    114       115       116       117       118       119   
                  14.32483  14.32483  14.32483  14.32494  17.20634  17.20634
                   0.00000   0.00000   0.00000   0.00000   0.00000   0.00000
                  --------  --------  --------  --------  --------  --------
 0 Ce dxz             0.0       0.0       0.0       0.0      56.1      28.4
 0 Ce dyz             0.0       0.0       0.0       0.0      36.9      62.3
 0 Ce dxy             0.0       0.0       0.0       0.0       7.0       9.3
 0 Ce g0              0.0       0.0       0.0      58.3       0.0       0.0
 0 Ce g+1             0.2      87.2       0.1       0.0       0.0       0.0
 0 Ce g-1            61.0       0.0      26.5       0.0       0.0       0.0
 0 Ce g+3             0.0      12.5       0.0       0.0       0.0       0.0
 0 Ce g-3             8.7       0.0       3.8       0.0       0.0       0.0
 0 Ce g+4             0.0       0.0       0.0      41.7       0.0       0.0
 0 Ce g-4            30.0       0.3      69.6       0.0       0.0       0.0

                    120       121       122       123       124       125   
                  17.20634  17.21023  17.21023  17.38397  17.38397  17.38397
                   0.00000   0.00000   0.00000   0.00000   0.00000   0.00000
                  --------  --------  --------  --------  --------  --------
 0 Ce dz2             0.0      34.6      65.4       0.0       0.0       0.0
 0 Ce dxz            15.5       0.0       0.0       0.0       0.0       0.0
 0 Ce dyz             0.8       0.0       0.0       0.0       0.0       0.0
 0 Ce dx2y2           0.0      65.4      34.6       0.0       0.0       0.0
 0 Ce dxy            83.8       0.0       0.0       0.0       0.0       0.0
 0 Ce h0              0.0       0.0       0.0       3.8       8.4       0.1
 0 Ce h+1             0.0       0.0       0.0       0.8       0.9      11.9
 0 Ce h-1             0.0       0.0       0.0       8.6       3.4       1.5
 0 Ce h+3             0.0       0.0       0.0       4.8       5.6      75.7
 0 Ce h-3             0.0       0.0       0.0      54.8      21.6       9.8
 0 Ce h+4             0.0       0.0       0.0      27.1      60.1       0.6
 0 Ce h+5             0.0       0.0       0.0       0.0       0.0       0.3
 0 Ce h-5             0.0       0.0       0.0       0.2       0.1       0.0

                    126       127       128       129       130       131   
                  17.38399  17.38399  17.38411  17.38411  17.38411  17.38416
                   0.00000   0.00000   0.00000   0.00000   0.00000   0.00000
                  --------  --------  --------  --------  --------  --------
 0 Ce h0              0.0       0.0       0.0       0.0       0.0      86.3
 0 Ce h+1             0.0       0.0       3.1      35.0       5.7       0.5
 0 Ce h-1             0.0       0.0       0.1       5.8      37.9       0.2
 0 Ce h+2             0.0       0.0      92.8       6.8       0.4       0.0
 0 Ce h-2             0.8      99.2       0.0       0.0       0.0       0.0
 0 Ce h+3             0.0       0.0       0.7       7.5       1.2       0.0
 0 Ce h-3             0.0       0.0       0.0       1.2       8.1       0.0
 0 Ce h+4             0.0       0.0       0.0       0.0       0.0      12.0
 0 Ce h-4            99.2       0.8       0.0       0.0       0.0       0.0
 0 Ce h+5             0.0       0.0       3.3      37.5       6.1       0.6
 0 Ce h-5             0.0       0.0       0.1       6.2      40.6       0.3

                    132       133       134       135       136       137   
[...]
-----------|------ x -------- y -------- z ---|---------------|------ x -------- y -------- z ---|
           |   0.722842  -0.000000  -0.000000 | X:   0.722842 |  -0.056457   0.853930  -0.517316 |
 279.00000 |  -0.000000   0.722842   0.000000 | Y:   0.722842 |   0.895223   0.272696   0.352438 |
           |  -0.000000   0.000000   0.722843 | Z:   0.722843 |  -0.442028   0.443215   0.779854 |
-----------|------ x -------- y -------- z ---|---------------|------ x -------- y -------- z ---|
           |   0.723445  -0.000000  -0.000000 | X:   0.723445 |  -0.055963   0.854345  -0.516684 |
 280.00000 |  -0.000000   0.723445   0.000000 | Y:   0.723445 |   0.895376   0.271923   0.352648 |
           |  -0.000000   0.000000   0.723446 | Z:   0.723446 |  -0.441781   0.442891   0.780177 |
-----------|------ x -------- y -------- z ---|---------------|------ x -------- y -------- z ---|
           |   0.724044  -0.000000  -0.000000 | X:   0.724044 |  -0.055472   0.854756  -0.516056 |
 281.00000 |  -0.000000   0.724044   0.000000 | Y:   0.724044 |   0.895527   0.271154   0.352856 |
           |  -0.000000   0.000000   0.724044 | Z:   0.724044 |  -0.441536   0.442569   0.780499 |
-----------|------ x -------- y -------- z ---|---------------|------ x -------- y -------- z ---|
           |   0.724637  -0.000000  -0.000000 | X:   0.724637 |  -0.054985   0.855164  -0.515433 |
 282.00000 |  -0.000000   0.724637   0.000000 | Y:   0.724637 |   0.895677   0.270390   0.353061 |
           |  -0.000000   0.000000   0.724637 | Z:   0.724637 |  -0.441293   0.442249   0.780818 |
-----------|------ x -------- y -------- z ---|---------------|------ x -------- y -------- z ---|
           |   0.725226  -0.000000  -0.000000 | X:   0.725226 |  -0.054500   0.855568  -0.514814 |
 283.00000 |  -0.000000   0.725226   0.000000 | Y:   0.725226 |   0.895826   0.269631   0.353264 |
           |  -0.000000   0.000000   0.725226 | Z:   0.725226 |  -0.441051   0.441931   0.781135 |
-----------|------ x -------- y -------- z ---|---------------|------ x -------- y -------- z ---|
           |   0.725810  -0.000000  -0.000000 | X:   0.725810 |  -0.054019   0.855968  -0.514199 |
 284.00000 |  -0.000000   0.725810   0.000000 | Y:   0.725810 |   0.895973   0.268877   0.353464 |
           |  -0.000000   0.000000   0.725810 | Z:   0.725810 |  -0.440810   0.441615   0.781449 |
-----------|------ x -------- y -------- z ---|---------------|------ x -------- y -------- z ---|
           |   0.726389  -0.000000  -0.000000 | X:   0.726389 |  -0.053540   0.856365  -0.513588 |
 285.00000 |  -0.000000   0.726389   0.000000 | Y:   0.726389 |   0.896120   0.268128   0.353662 |
           |  -0.000000   0.000000   0.726389 | Z:   0.726389 |  -0.440571   0.441301   0.781761 |
-----------|------ x -------- y -------- z ---|---------------|------ x -------- y -------- z ---|
           |   0.726964  -0.000000  -0.000000 | X:   0.726964 |  -0.053065   0.856758  -0.512981 |
 286.00000 |  -0.000000   0.726964   0.000000 | Y:   0.726964 |   0.896265   0.267384   0.353858 |
           |  -0.000000   0.000000   0.726964 | Z:   0.726964 |  -0.440334   0.440990   0.782071 |
-----------|------ x -------- y -------- z ---|---------------|------ x -------- y -------- z ---|
           |   0.727534  -0.000000  -0.000000 | X:   0.727534 |  -0.052593   0.857148  -0.512379 |
 287.00000 |  -0.000000   0.727534   0.000000 | Y:   0.727534 |   0.896408   0.266644   0.354052 |
           |  -0.000000   0.000000   0.727534 | Z:   0.727535 |  -0.440098   0.440680   0.782378 |
-----------|------ x -------- y -------- z ---|---------------|------ x -------- y -------- z ---|
           |   0.728100  -0.000000  -0.000000 | X:   0.728100 |  -0.052124   0.857534  -0.511780 |
 288.00000 |  -0.000000   0.728100   0.000000 | Y:   0.728100 |   0.896551   0.265910   0.354244 |
           |  -0.000000   0.000000   0.728100 | Z:   0.728100 |  -0.439863   0.440372   0.782683 |
-----------|------ x -------- y -------- z ---|---------------|------ x -------- y -------- z ---|
           |   0.728662  -0.000000  -0.000000 | X:   0.728662 |  -0.051658   0.857917  -0.511185 |
 289.00000 |  -0.000000   0.728662   0.000000 | Y:   0.728662 |   0.896692   0.265180   0.354433 |
           |  -0.000000   0.000000   0.728662 | Z:   0.728662 |  -0.439630   0.440066   0.782986 |
-----------|------ x -------- y -------- z ---|---------------|------ x -------- y -------- z ---|
           |   0.729219  -0.000000  -0.000000 | X:   0.729219 |  -0.051195   0.858296  -0.510594 |
 290.00000 |  -0.000000   0.729219   0.000000 | Y:   0.729219 |   0.896832   0.264455   0.354621 |
           |  -0.000000   0.000000   0.729219 | Z:   0.729219 |  -0.439399   0.439763   0.783286 |
-----------|------ x -------- y -------- z ---|---------------|------ x -------- y -------- z ---|
           |   0.729772  -0.000000  -0.000000 | X:   0.729771 |  -0.050735   0.858672  -0.510007 |
 291.00000 |  -0.000000   0.729772   0.000000 | Y:   0.729772 |   0.896971   0.263734   0.354806 |
           |  -0.000000   0.000000   0.729772 | Z:   0.729772 |  -0.439169   0.439461   0.783585 |
-----------|------ x -------- y -------- z ---|---------------|------ x -------- y -------- z ---|
           |   0.730320  -0.000000  -0.000000 | X:   0.730320 |  -0.050278   0.859045  -0.509424 |
 292.00000 |  -0.000000   0.730320   0.000000 | Y:   0.730320 |   0.897109   0.263019   0.354989 |
           |  -0.000000   0.000000   0.730320 | Z:   0.730320 |  -0.438940   0.439161   0.783881 |
-----------|------ x -------- y -------- z ---|---------------|------ x -------- y -------- z ---|
           |   0.730864  -0.000000  -0.000000 | X:   0.730864 |  -0.049824   0.859415  -0.508845 |
 293.00000 |  -0.000000   0.730864   0.000000 | Y:   0.730864 |   0.897245   0.262307   0.355170 |
           |  -0.000000   0.000000   0.730864 | Z:   0.730865 |  -0.438713   0.438863   0.784175 |
-----------|------ x -------- y -------- z ---|---------------|------ x -------- y -------- z ---|
           |   0.731404  -0.000000  -0.000000 | X:   0.731404 |  -0.049373   0.859781  -0.508270 |
 294.00000 |  -0.000000   0.731404   0.000000 | Y:   0.731404 |   0.897381   0.261601   0.355349 |
           |  -0.000000   0.000000   0.731405 | Z:   0.731405 |  -0.438487   0.438567   0.784467 |
-----------|------ x -------- y -------- z ---|---------------|------ x -------- y -------- z ---|
           |   0.731940  -0.000000  -0.000000 | X:   0.731940 |  -0.048925   0.860145  -0.507698 |
 295.00000 |  -0.000000   0.731940   0.000000 | Y:   0.731940 |   0.897515   0.260899   0.355526 |
           |  -0.000000   0.000000   0.731940 | Z:   0.731941 |  -0.438262   0.438273   0.784757 |
-----------|------ x -------- y -------- z ---|---------------|------ x -------- y -------- z ---|
           |   0.732472  -0.000000  -0.000000 | X:   0.732472 |  -0.048479   0.860505  -0.507131 |
 296.00000 |  -0.000000   0.732472   0.000000 | Y:   0.732472 |   0.897648   0.260201   0.355702 |
           |  -0.000000   0.000000   0.732472 | Z:   0.732472 |  -0.438039   0.437981   0.785045 |
-----------|------ x -------- y -------- z ---|---------------|------ x -------- y -------- z ---|
           |   0.733000  -0.000000  -0.000000 | X:   0.733000 |  -0.048037   0.860862  -0.506567 |
 297.00000 |  -0.000000   0.733000   0.000000 | Y:   0.733000 |   0.897780   0.259508   0.355875 |
           |  -0.000000   0.000000   0.733000 | Z:   0.733000 |  -0.437817   0.437690   0.785330 |
-----------|------ x -------- y -------- z ---|---------------|------ x -------- y -------- z ---|
           |   0.733524  -0.000000  -0.000000 | X:   0.733524 |  -0.047597   0.861216  -0.506006 |
 298.00000 |  -0.000000   0.733524   0.000000 | Y:   0.733524 |   0.897911   0.258820   0.356046 |
           |  -0.000000   0.000000   0.733524 | Z:   0.733524 |  -0.437597   0.437402   0.785614 |
-----------|------ x -------- y -------- z ---|---------------|------ x -------- y -------- z ---|
           |   0.734044  -0.000000  -0.000000 | X:   0.734044 |  -0.047161   0.861566  -0.505450 |
 299.00000 |  -0.000000   0.734044   0.000000 | Y:   0.734044 |   0.898040   0.258136   0.356215 |
           |  -0.000000   0.000000   0.734044 | Z:   0.734044 |  -0.437378   0.437115   0.785895 |
-----------|------ x -------- y -------- z ---|---------------|------ x -------- y -------- z ---|
           |   0.734560  -0.000000  -0.000000 | X:   0.734559 |  -0.046727   0.861914  -0.504896 |
 300.00000 |  -0.000000   0.734559   0.000000 | Y:   0.734560 |   0.898169   0.257456   0.356383 |
           |  -0.000000   0.000000   0.734560 | Z:   0.734560 |  -0.437160   0.436830   0.786175 |
-------------------------------------------------------------------------------------------------|
Computation of the magnetization torque ... skipped by the user
Computation of the molar magnetization ... skipped by the user

-@-#-$-%-&-*--@-#-$-%-&-*--@-#-$-%-&-*--@-#-$-%-&-*--@-#-$-%-&-*--@-#-$-%-&-*--@-#-$-%-&-*--@-#-$-%-&-*--@-#-$-%-&-*--@-#-$-%-&-*-

          HAPPY   LANDING !!!   SINGLE_ANISO ENDED  OK !

-*-&-%-$-#-@--*-&-%-$-#-@--*-&-%-$-#-@--*-&-%-$-#-@--*-&-%-$-#-@--*-&-%-$-#-@--*-&-%-$-#-@--*-&-%-$-#-@--*-&-%-$-#-@--*-&-%-$-#-@-
 SINGLE_ANISO finished sucessfully!



-------------------------------------------------------------------------------
                              ORCA-AILFT
-------------------------------------------------------------------------------

[file orca_tools/SHARK/shark_setup_ri.cpp, line 82]: Error (SHARK/SelectAuxBasis): AuxC requested but not present


ORCA finished by error termination in AILFT
Calling Command: /home/dumitruc/Programs/orca610/orca_ailft cerium 
  .... trying to continue anyways

--------------
CASSCF TIMINGS
--------------

Total time                       ...        1.0 sec
Sum of individual times          ...        1.0 sec ( 99.3%)

Calculation of AO operators
Calculation of MO transformed quantities
Configuration interaction steps
   CI-setup phase                ...        0.8 sec ( 78.3%)
Orbital improvement steps
Properties                       ...        0.2 sec ( 20.9%)
   SOC integral calculation      ...        0.0 sec (  0.0%)
   SSC RMEs (incl. integrals)    ...        0.0 sec (  0.0%)
   SOC RMEs                      ...        0.0 sec (  0.0%)

Maximum memory used throughout the entire CASSCF-calculation: 44.0 MB

-------------------------   --------------------
FINAL SINGLE POINT ENERGY     -8850.786245624584
-------------------------   --------------------



           ************************************************************
           *        Program running with 8 parallel MPI-processes     *
           *              working on a common directory               *
           ************************************************************

------------------------------------------------------------------------------
                              ORCA PROPERTY CALCULATIONS
------------------------------------------------------------------------------

GBWName                                 ... cerium.gbw
Number of atoms                         ...      7
Number of basis functions               ...    176
Max core memory                         ...   2000 MB

Electric properties:
Dipole moment                           ... YES(DKH)
Quadrupole moment                       ...  NO
Static polarizability (Dipole/Dipole)   ...  NO
Static polarizability (Dipole/Quad.)    ...  NO
Static polarizability (Quad./Quad.)     ...  NO
Static polarizability (Velocity)        ...  NO
Static hyperpolarizability              ...  NO

Atomic electric properties:
Dipole moment                           ...  NO
Quadrupole moment                       ...  NO
Static polarizability                   ...  NO

Choice of electric origin               ... Center of mass
Position of electric origin             ...     0.000000     0.000000     0.000000

General magnetic properties:
Magnetizability                         ...  NO

EPR properties:
g-Tensor (aka g-matrix)                 ...  NO
Zero-Field splitting spin-orbit         ...  NO
Zero-field splitting spin-spin          ...  NO
Hyperfine couplings                     ...  NO (   0 nuclei)
Quadrupole couplings                    ...  NO (   0 nuclei)
Contact density                         ...  NO (   0 nuclei)

NMR properties:
Chemical shifts                         ...  NO (   0 nuclei)
Spin-rotation constants                 ...  NO (   0 nuclei)
Spin-spin couplings                     ...  NO (   0 nuclei,    0 pairs)

Choice of magnetic origin               ... Center of nuclear charge
Position of magnetic origin             ...     0.000000     0.000000     0.000000

Properties with geometric perturbations:
SCF Hessian                             ...  NO
IR spectrum                             ...  NO
VCD spectrum                            ...  NO
X-ray spectroscopy properties:
SCF XES/XAS/RIXS spectra                ...  NO

SCF SOC stabilization energy            ...  NO
Diagonal Born-Oppenheimer correction    ...  NO
DKH transformation order                ... Second
Note: picture-change corrections are only included
      for the properties annotated with "YES(DKH)"!


-------------
DIPOLE MOMENT
-------------

Method             : CASSCF/ALL STATES AVERAGE
Type of density    : Electron Density
Level              : Unrelaxed density
State              :  -1
Multiplicity       :  -1
Irrep              :   0
Energy             : -8850.7791450776239799 Eh
Basis              : AO
                                X                 Y                 Z
Electronic contribution:      0.000000000       0.000000000       0.000000000
Nuclear contribution   :      0.000000000       0.000000000       0.000000000
                        -----------------------------------------
Total Dipole Moment    :      0.000000000       0.000000000       0.000000000
                        -----------------------------------------
Magnitude (a.u.)       :      0.000000000
Magnitude (Debye)      :      0.000000001



--------------------
Rotational spectrum 
--------------------
 
Rotational constants in cm-1:             0.000000             0.000000             0.000000 
Rotational constants in MHz :             0.000000             0.000000             0.000000 

Dipole components along the rotational axes: 
x,y,z [a.u.] :     0.000000     0.000000     0.000000 
x,y,z [Debye]:     0.000000     0.000000     0.000000 

 

Dipole moment calculation done in   0.0 sec 

Maximum memory used throughout the entire PROP-calculation: 16.1 MB

--------------------------------
SUGGESTED CITATIONS FOR THIS RUN
--------------------------------

Below you find a list of papers that are relevant to this ORCA run
We neither can nor want to force you to cite these papers, but we appreciate if you do
You receive ORCA, which is the product of decades of hard work by many enthusiastic individuals, for free
The only thing we kindly ask in return is that you cite our papers,
We deeply appreciate it, if you show your appreciation for ORCA by not just citing the generic ORCA reference.

Please note that relegating all ORCA citations to the supporting information does *not* help us.
SI sections are not indexed - citations you put there will not count into any citation statistics
But we need these citations in order to attract the funding resources that allow us to do what we are doing

Therefore, if you are a happy ORCA user, please consider citing a few of the papers listed below in the main body of your paper

In addition to the list printed below, the program has created the file cerium.bibtex that contains the list in bibtex format
You can import this file easily into all common literature databanks and citation aid programs


List of essential papers. We consider these as the minimum necessary citations

  1. Neese, F.
     Software update: the ORCA program system, version 6.0
     WIRES Comput. Molec. Sci. 2025 15(1), e70019
     doi.org/10.1002/wcms.7019

List of papers to cite with high priority. The work reported in these papers was absolutely
necessary for this run to complete.
Our perspective: the developers of density functionals and basis sets usually get cited in chemistry papers
Good! But without the algorithms to do something with them, the functionals or basis sets would not do anything.
Hence, in our opinion, the algorithm design and method developments papers are equally worthy of getting cited

  1. Ganyushin, D.; Neese, F.
     First-principles calculations of zero-field splitting parameters
     J. Chem. Phys. 2006 125(2), Art. No. 024103
     doi.org/10.1063/1.2213976
  2. Atanasov, M.; Ganyushin, D.; Sivalingam, K.; Neese, F.
     A Modern First-Principles View on Ligand Field Theory Through the Eyes of Correlated Multireference Wavefunctions
     Struct. Bond. 2012 142 , 149-220
     doi.org/10.1007/430_2011_57
  3. Kollmar, C.; Sivalingam, K.; Helmich-Paris, B.; Angeli, C.; Neese, F.
     A perturbation-based super-CI approach for the orbital optimization of a CASSCF wave function
     J. Comput. Chem. 2019 40 , 1463-1470
     doi.org/10.1002/jcc.25801
  4. Lang, L.; Neese, F.
     Spin-dependent properties in the framework of the dynamic correlation dressed complete active space method
     J. Chem. Phys. 2019 150 , 
     doi.org/10.1063/1.5085203
  5. Neese, F.
     The SHARK Integral Generation and Digestion System
     J. Comp. Chem. 2022 44(3), 381
     doi.org/10.1002/jcc.26942
  6. Ugandi, M.; Roemelt, M.
     A recursive formulation of one-electron coupling coefficients for spin-adapted configuration interaction calculations featuring many unpaired electrons
     Int. J. Quantum Chem. 2023 123 , e27045
     doi.org/10.1002/qua.27045

List of suggested additional citations. These are papers that are important in the 'surrounding' of 
of this run, or papers that preceded the highly important papers. If you like your results we are grateful for a citation.

  1. Neese, F.
     The ORCA program system
     WIRES Comput. Molec. Sci. 2012 2(1), 73-78
     doi.org/10.1002/wcms.81
  2. Aravena, D.; Atanasov, M.; Neese, F.
     Periodic Trends in Lanthanide Compounds through the Eyes of Multireference ab Initio Theory
     Inorg. Chem. 2016 55(9), 4457-4469
     doi.org/10.1021/acs.inorgchem.6b00244
  3. Jung, J.L.; Atanasov, M.; Neese, F.
     Ab Initio Ligand-Field Theory Analysis and Covalency Trends in Actinide and Lanthanide Free Ions and Octahedral Complexes
     Inorg. Chem. 2016 56(15), 8802-8816
  4. Neese, F.
     Software update: the ORCA program system, version 4.0
     WIRES Comput. Molec. Sci. 2018 8(1), 1-6
     doi.org/10.1002/wcms.1327
  5. Neese, F.; Wennmohs, F.; Becker, U.; Riplinger, C.
     The ORCA quantum chemistry program package
     J. Chem. Phys. 2020 152(22), 224108
     doi.org/10.1063/5.0004608
  6. Neese, F.
     Software update: The ORCA program system—Version 5.0
     WIRES Comput. Molec. Sci. 2022 12(1), e1606
     doi.org/10.1002/wcms.1606

List of optional additional citations

  1. Neese, F.
     Approximate second-order SCF convergence for spin unrestricted wavefunctions
     Chem. Phys. Lett. 2000 325(1-3), 93-98
     doi.org/10.1016/s0009-2614(00)00662-x

Timings for individual modules:

Sum of individual times          ...       27.948 sec (=   0.466 min)
Startup calculation              ...        0.311 sec (=   0.005 min)   1.1 %
Relativistic integrals           ...        0.262 sec (=   0.004 min)   0.9 %
SCF iterations                   ...        0.208 sec (=   0.003 min)   0.7 %
CASSCF iterations                ...       16.838 sec (=   0.281 min)  60.2 %
Property integrals               ...       10.133 sec (=   0.169 min)  36.3 %
Property calculations            ...        0.196 sec (=   0.003 min)   0.7 %
                             ****ORCA TERMINATED NORMALLY****
TOTAL RUN TIME: 0 days 0 hours 0 minutes 28 seconds 163 msec
