SCRATCH DIRECTORY IS: /media/scratch/dumitruc/cerium.17461

                                 *****************
                                 * O   R   C   A *
                                 *****************

                                            #,                                       
                                            ###                                      
                                            ####                                     
                                            #####                                    
                                            ######                                   
                                           ########,                                 
                                     ,,################,,,,,                         
                               ,,#################################,,                 
                          ,,##########################################,,             
                       ,#########################################, ''#####,          
                    ,#############################################,,   '####,        
                  ,##################################################,,,,####,       
                ,###########''''           ''''###############################       
              ,#####''   ,,,,##########,,,,          '''####'''          '####       
            ,##' ,,,,###########################,,,                        '##       
           ' ,,###''''                  '''############,,,                           
         ,,##''                                '''############,,,,        ,,,,,,###''
      ,#''                                            '''#######################'''  
     '                                                          ''''####''''         
             ,#######,   #######,   ,#######,      ##                                
            ,#'     '#,  ##    ##  ,#'     '#,    #''#        ,####,    ,#,          
            ##       ##  ##   ,#'  ##            #'  '#       #'       ,# #          
            ##       ##  #######   ##           ,######,      #####,      #          
            '#,     ,#'  ##    ##  '#,     ,#' ,#      #,     #,   #      #          
             '#######'   ##     ##  '#######'  #'      '#     '####' #    #          



                #########################################################
                #                        -***-                          #
                #          Department of theory and spectroscopy        #
                #                                                       #
                #                      Frank Neese                      #
                #                                                       #
                #     Directorship, Architecture, Infrastructure        #
                #                    SHARK, DRIVERS                     #
                #        Core code/Algorithms in most modules           #
                #                                                       #
                #        Max Planck Institute fuer Kohlenforschung      #
                #                Kaiser Wilhelm Platz 1                 #
                #                 D-45470 Muelheim/Ruhr                 #
                #                      Germany                          #
                #                                                       #
                #                  All rights reserved                  #
                #                        -***-                          #
                #########################################################


                         Program Version 6.1.0  -  RELEASE   -
                                (GIT: $679e74b$)
                          ($2025-06-10 18:02:51 +0200$)


 With contributions from (in alphabetic order):
[Max-Planck-Institut fuer Kohlenforschung]                               
  Daniel Aravena         : Magnetic Suceptibility                        
  Michael Atanasov       : Ab Initio Ligand Field Theory (pilot matlab implementation)
  Alexander A. Auer      : GIAO ZORA, VPT2 properties, NMR spectrum      
  Ute Becker             : All parallelization in ORCA, NUMFREQ, NUMCALC 
  Giovanni Bistoni       : ED, misc. LED, open-shell LED, HFLD           
  Dmytro Bykov           : pre 5.0 version of the SCF Hessian            
  Marcos Casanova-Páez   : Triplet and SCS-CIS(D). UHF-(DLPNO)-IP/EA/STEOM-CCSD. UHF-CVS-IP/STEOM-CCSD   
  Vijay G. Chilkuri      : MRCI spin determinant printing, contributions to CSF-ICE 
  Pauline Colinet        : FMM embedding                                 
  Dipayan Datta          : RHF DLPNO-CCSD density                        
  Achintya Kumar Dutta   : EOM-CC, STEOM-CC                              
  Nicolas Foglia         : Exact transition moments, OPA infrastructure, MCD improvements    
  Dmitry Ganyushin       : Spin-Orbit,Spin-Spin,Magnetic field MRCI      
  Miquel Garcia-Rates    : C-PCM and meta-GGA Hessian, CCSD/C-PCM, Gaussian charge scheme 
  Tiago L. C. Gouveia    : GS-ROHF, GS-ROCIS                             
  Yang Guo               : DLPNO-NEVPT2, F12-NEVPT2, CIM, IAO-localization        
  Andreas Hansen         : Spin unrestricted coupled pair/coupled cluster methods 
  Ingolf Harden          : AUTO-CI MPn and infrastructure                
  Benjamin Helmich-Paris : MC-RPA, TRAH-(SCF,CASSCF), AVAS, COSX integrals, SCF dyn. polar., MC-PDFT, srDFT 
  Lee Huntington         : MR-EOM, pCC                                   
  Robert Izsak           : Overlap fitted RIJCOSX, COSX-SCS-MP3, EOM     
  Riya Kayal             : Wick's Theorem for AUTO-CI, AUTO-CI UHF-CCSDT 
  Emily Kempfer          : AUTO-CI RHF CISDT and CCSDT, approximate NEVPT4
  Christian Kollmar      : KDIIS, OOCD, Brueckner-CCSD(T), CCSD density, CASPT2, CASPT2-K, improved NEVPT2 
  Axel Koslowski         : Symmetry handling                             
  Simone Kossmann        : meta-GGA functionals, TD-DFT gradient, OOMP2, (MP2 Hessian; deprecated post 5.0) 
  Lucas Lang             : DCDCAS, Hyperfine gauge corrections, ICE-SOC+SSC
  Marvin Lechner         : AUTO-CI (C++ implementation), FIC-MRCC        
  Spencer Leger          : CASSCF response                               
  Dagmar Lenk            : GEPOL surface, SMD, ORCA-2-JSON               
  Dimitrios Liakos       : Extrapolation schemes; Compound Job, Property file
  Dimitrios Manganas     : Further ROCIS development; embedding schemes. LFT, Crystal Embedding 
  Dimitrios Pantazis     : SARC Basis sets                               
  Anastasios Papadopoulos: AUTO-CI, single reference methods and gradients 
  Taras Petrenko         : pre 6.0 DFT Hessian and TD-DFT gradient,  ECA, NRVS 
  Petra Pikulova         : Analytic Raman intensities                    
  Peter Pinski           : DLPNO-MP2, DLPNO-MP2 Gradient                 
  Shashank Vittal Rao    : ES-AILFT, MagRelax                            
  Christoph Reimann      : Effective Core Potentials                     
  Marius Retegan         : Local ZFS, SOC                                
  Christoph Riplinger    : Optimizer, TS searches, QM/MM, DLPNO-CCSD(T), (RO)-DLPNO pert. Triples 
  Michael Roemelt        : Original ROCIS implementation, recursive CI coupling coefficients
  Masaaki Saitow         : Open-shell DLPNO-CCSD energy and density      
  Barbara Sandhoefer     : DKH picture change effects                    
  Yorick L. A. Schmerwitz: GMF and freeze-and-release deltaSCF, NEB S-IDPP initial path                    
  Kantharuban Sivalingam : CASSCF convergence/infrastructure, NEVPT2, NEVPT3, NEVPT4(SD), FIC-MRCI and CEPA variants
  Bernardo de Souza      : ESD, SOC TD-DFT                               
  Georgi L. Stoychev     : AutoAux, RI-MP2 NMR, DLPNO-MP2 response, X2C  
  Van Anh Tran           : RI-MP2 g-tensors                              
  Willem Van den Heuvel  : Paramagnetic NMR                              
  Zikuan Wang            : NOTCH, Electric field optimization            
  Frank Wennmohs         : Technical directorship and infrastructure     
  Hang Xu                : AUTO-CI-Response properties                   
                                                                         
[FACCTs GmbH]                                                            
  Markus Bursch, Nicolas Foglia, Miquel Garcia-Rates, Ingolf Harden, Hagen Neugebauer, Anastasios Papadopoulos, 
  Christoph Riplinger, Bernardo de Souza, Georgi L. Stoychev                                                    
                                                                 
  APM, various basis sets, CI-OPT, improved COSX, DLPNO-Multilevel,           
  DOCKER, DRACO, updates on ESD, Fragmentator, GOAT, IRC, LR-CPCM, L-BFGS, MBIS, meta-GGA TD-DFT gradient, ML-optimized integration grids, 
  MM, NACMEs, nearIR, NEB, NEB-TS, NL-DFT gradient (VV10), 2- and 3-layer-ONIOM, interface openCOSMO-RS, QMMM,   
  Crystal-QMMM, RESP, rigid body optimization, SF, symmetry and pop. for TD-DFT, various functionals, SOLVATOR                                   
                                                                         
[Other institutions]                                                     
  V. Asgeirsson          : NEB                                           
  Christoph Bannwarth    : sTDA-DFT, sTD-DFT, PBEh-3c, B97-3c, D3        
  Giovanni Bistoni       : ETS/NOCV, ADLD/ADEX, COVALED                  
  Martin Brehm           : Molecular dynamics                            
  Ronald Cardenas        : ETS/NOCV                                      
  Martina Colucci        : COVALED                                       
  Sebastian Ehlert       : rSCAN, r2SCAN, r2SCAN-3c, D4, dhf basis sets  
  Marvin Friede          : D4 for Fr, Ra, Ac-Lr                          
  Lars Goerigk           : TD-DFT with DH, B97 family of functionals     
  Stefan Grimme          : VdW corrections, initial TS optimization, DFT functionals, gCP, sTDA/sTD-DF 
  Waldemar Hujo          : DFT-NL                                        
  H. Jonsson             : NEB                                           
  Holger Kruse           : gCP                                           
  Marcel Mueller         : wB97X-3c, vDZP basis set                      
  Hagen Neugebauer       : wr2SCAN, Native XTB                           
  Gianluca Regni         : ADLD/ADEX                                     
  Tobias Risthaus        : pre 6.0 range-separated hybrid DFT and stability analysis
  Lukas Wittmann         : regularized MP2, r2SCAN double-hybrids, wr2SCAN        
                                                                         
We gratefully acknowledge several colleagues who have allowed us to      
interface, adapt or use parts of their codes:                            
  Ed Valeev, F. Pavosevic, A. Kumar             : LibInt (2-el integral package), F12 methods 
  Garnet Chan, S. Sharma, J. Yang, R. Olivares  : DMRG                   
  Ulf Ekstrom                                   : XCFun DFT Library      
  Mihaly Kallay                                 : mrcc  (arbitrary order and MRCC methods)
  Frank Weinhold                                : gennbo (NPA and NBO analysis)           
  Simon Mueller                                 : openCOSMO-RS                            
  Christopher J. Cramer and Donald G. Truhlar   : smd solvation model                     
  S Lehtola, MJT Oliveira, MAL Marques          : LibXC Library                           
  Liviu Ungur et al                             : ANISO software                          


 Your calculation uses the libint2 library for the computation of 2-el integrals
 For citations please refer to: http://libint.valeyev.net

 Your ORCA version has been built with support for libXC version: 7.0.0
 For citations please refer to: https://libxc.gitlab.io

 This ORCA versions uses:
   CBLAS   interface :  Fast vector & matrix operations
   LAPACKE interface :  Fast linear algebra routines
   SCALAPACK package :  Parallel linear algebra routines
   Shared memory     :  Shared parallel matrices
   BLAS/LAPACK       :  OpenBLAS 0.3.29  USE64BITINT DYNAMIC_ARCH NO_AFFINITY Haswell SINGLE_THREADED
        Core in use  :  Haswell
   Copyright (c) 2011-2014, The OpenBLAS Project


  ***********************************
  * Starting time: Thu Oct 16 12:23:45 2025
  * Host name:     bohr
  * Process ID:    858418
  * Working dir.:  /media/scratch/dumitruc/cerium.17461
  ***********************************

NOTE: MaxCore=2000 MB was set to SCF,MP2,MDCI,CIPSI,MRCI,RASCI and CIS
      => If you want to overwrite this, your respective input block should be placed after the MaxCore statement
================================================================================

----- Orbital basis set information -----
Your calculation utilizes the basis: SARC2-DKH-QZVP
   D. Aravena, F. Neese and D. A. Pantazis, J. Chem. Theory Comput. 12, 1148 (2016).

================================================================================
                                        WARNINGS
                       Please study these warnings very carefully!
================================================================================


WARNING: The basis set has functions with high angular momentum (Lmax>4).
         We might need to increase small grids for safety reasons and
         in general, DEFGRID3 is recommend for such cases.
  ===> : GRIDX1, TD-DFT and the CP-SCF AngGrids will be increased to at least 2


WARNING: Relativistic property calculations require picture change transformations!
  ===> : Setting %rel PictureChange = 2

NOTE: MaxCore=2000 MB was set to SCF,MP2,MDCI,CIPSI,MRCI,RASCI and CIS
      => If you want to overwrite this, your respective input block should be placed after the MaxCore statement
================================================================================

----- Orbital basis set information -----
Your calculation utilizes the basis: SARC2-DKH-QZVP
   D. Aravena, F. Neese and D. A. Pantazis, J. Chem. Theory Comput. 12, 1148 (2016).

================================================================================
                                        WARNINGS
                       Please study these warnings very carefully!
================================================================================


WARNING: The basis set has functions with high angular momentum (Lmax>4).
         We might need to increase small grids for safety reasons and
         in general, DEFGRID3 is recommend for such cases.
  ===> : GRIDX1, TD-DFT and the CP-SCF AngGrids will be increased to at least 2


CAS(DoSusceptibility), calculation requested: setting Magnetic origin to Nuclear Charge center
WARNING: In AILFT F2ff/F4ff remain undefined when considering only the HS Multiplicity block
         Be Careful with the results!
TIP:     If possible use in addition a LS Multiplicity Block

================================================================================
                                       INPUT FILE
================================================================================
NAME = cerium.inp
|  1> ! dkh
|  2> ! sarc2-dkh-qzvp
|  3> ! tightscf
|  4> ! nori
|  5> ! KDIIS SOSCF NOTRAH
|  6> ! pal4
|  7> %base "start"
|  8> 
|  9> %output
| 10>   Print[ P_ReducedOrbPopMO_M] 1
| 11> end
| 12> 
| 13> %maxcore 2000
| 14> 
| 15> *xyz 4 1
| 16> Ce    0.000000000000      0.000000000000      0.000000000000
| 17> Q -2  1.399622344511      2.424217012102     -1.078994518513
| 18> Q -2  1.399622344511     -2.424217012102     -1.078994518513
| 19> Q -2 -2.799244689022      0.000000000000     -1.078994518513
| 20> *
| 21> 
| 22> $new_job
| 23> 
| 24> ! dkh
| 25> ! sarc2-dkh-qzvp
| 26> ! tightscf 
| 27> ! nori
| 28> ! pal4
| 29> ! moread
| 30> %moinp "start.gbw"
| 31> 
| 32> %maxcore 2000
| 33> 
| 34> %rel
| 35>   method DKH 
| 36>   picturechange 2
| 37> end
| 38> 
| 39> %output
| 40>   Print[ P_ReducedOrbPopMO_M] 1
| 41> end
| 42> 
| 43> %casscf
| 44>   nel     1
| 45>   norb    7
| 46>   mult    2
| 47>   nroots  7
| 48>   maxiter 120
| 49>   printwf det
| 50>   actorbs forbs
| 51>   ci
| 52>    TPrintWF   0
| 53>   end
| 54>   rel
| 55>     dosoc true
| 56>     tprint 0.0000
| 57>     dosusceptibility true
| 58>     SUSTempMIN 1.0
| 59>     SUSTempMAX 300
| 60>   end
| 61>   aniso
| 62>     doaniso true
| 63>     quax 4
| 64>     mltp 2, 2, 2, 2, 2, 2, 2
| 65>     CRYS_element "Ce"
| 66>     CRYS_charge 3
| 67>     PrintLevel 4
| 68>     TINT 0, 300, 301
| 69>   end
| 70> end
| 71> 
| 72> *xyz 3 2
| 73> Ce    0.000000000000      0.000000000000      0.000000000000
| 74> Q -2  1.399622344511      2.424217012102     -1.078994518513
| 75> Q -2  1.399622344511     -2.424217012102     -1.078994518513
| 76> Q -2 -2.799244689022      0.000000000000     -1.078994518513
| 77> *
| 78> 
| 79> 
| 80>                          ****END OF INPUT****
================================================================================


                 $$$$$$$$$$$$$$$$$$$$$$$$$$$$$$$$$$$$$$$$$$$$$$ 
                 $ THERE ARE  2 JOBS TO BE PROCESSED THIS RUN $
                 $$$$$$$$$$$$$$$$$$$$$$$$$$$$$$$$$$$$$$$$$$$$$$ 




                 $$$$$$$$$$$$$$$$  JOB NUMBER  1 $$$$$$$$$$$$$$


                       ****************************
                       * Single Point Calculation *
                       ****************************

---------------------------------
CARTESIAN COORDINATES (ANGSTROEM)
---------------------------------
  Ce     0.000000    0.000000    0.000000
  Q      1.399622    2.424217   -1.078995
  Q      1.399622   -2.424217   -1.078995
  Q     -2.799245    0.000000   -1.078995

----------------------------
CARTESIAN COORDINATES (A.U.)
----------------------------
  NO LB      ZA    FRAG     MASS         X           Y           Z
   0 Ce   58.0000    0   140.120    0.000000    0.000000    0.000000
   1 Q    -2.0000    0     0.000    2.644903    4.581106   -2.039004
   2 Q    -2.0000    0     0.000    2.644903   -4.581106   -2.039004
   3 Q    -2.0000    0     0.000   -5.289806    0.000000   -2.039004

--------------------------------
INTERNAL COORDINATES (ANGSTROEM)
--------------------------------
 Ce     0   0   0     0.000000000000     0.00000000     0.00000000
 Q      1   0   0     3.000000000000     0.00000000     0.00000000
 Q      1   2   0     3.000000000000   107.81603774     0.00000000
 Q      1   2   3     3.000000000000   107.81603774   243.84232669

---------------------------
INTERNAL COORDINATES (A.U.)
---------------------------
 Ce     0   0   0     0.000000000000     0.00000000     0.00000000
 Q      1   0   0     5.669178401764     0.00000000     0.00000000
 Q      1   2   0     5.669178401764   107.81603774     0.00000000
 Q      1   2   3     5.669178401763   107.81603774   243.84232669

---------------------
BASIS SET INFORMATION
---------------------
There are 2 groups of distinct atoms

 Group   1 Type Ce  : 23s16p12d7f3g2h contracted to 18s12p9d4f3g2h pattern {611111111111111111/511111111111/411111111/4111/111/11}
 Group   2 Type Q,> :  contracted to  pattern {}

Atom   0Ce   basis set group =>   1
Atom   1Q    basis set group =>   2
Atom   2Q    basis set group =>   2
Atom   3Q    basis set group =>   2


           ************************************************************
           *        Program running with 4 parallel MPI-processes     *
           *              working on a common directory               *
           ************************************************************
------------------------------------------------------------------------------
                             ORCA STARTUP CALCULATIONS
------------------------------------------------------------------------------
------------------------------------------------------------------------------
                   ___                                                        
                  /   \      - P O W E R E D   B Y -                         
                 /     \                                                     
                 |  |  |   _    _      __       _____    __    __             
                 |  |  |  | |  | |    /  \     |  _  \  |  |  /  |          
                  \  \/   | |  | |   /    \    | | | |  |  | /  /          
                 / \  \   | |__| |  /  /\  \   | |_| |  |  |/  /          
                |  |  |   |  __  | /  /__\  \  |    /   |      \           
                |  |  |   | |  | | |   __   |  |    \   |  |\   \          
                \     /   | |  | | |  |  |  |  | |\  \  |  | \   \       
                 \___/    |_|  |_| |__|  |__|  |_| \__\ |__|  \__/        
                                                                              
                      - O R C A' S   B I G   F R I E N D -                    
                                      &                                       
                       - I N T E G R A L  F E E D E R -                       
                                                                              
 v1 FN, 2020, v2 2021, v3 2022-2024                                           
------------------------------------------------------------------------------


----------------------
SHARK INTEGRAL PACKAGE
----------------------

Number of atoms                             ...      4
Number of basis functions                   ...    176
Number of shells                            ...     48
Maximum angular momentum                    ...      5
Integral batch strategy                     ... SHARK/LIBINT Hybrid
RI-J (if used) integral strategy            ... SPLIT-RIJ (Revised 2003 algorithm where possible)
Printlevel                                  ...      1
Contraction scheme used                     ... SEGMENTED contraction
Prescreening option                         ... SCHWARTZ
   Thresh                                   ... 2.500e-11
   Tcut                                     ... 2.500e-12
   Tpresel                                  ... 2.500e-12 
Coulomb Range Separation                    ... NOT USED
Exchange Range Separation                   ... NOT USED
Multipole approximations                    ... NOT USED
Finite Nucleus Model                        ... NOT USED
CABS basis                                  ... NOT available
Auxiliary Coulomb fitting basis             ... NOT available
Auxiliary J/K fitting basis                 ... NOT available
Auxiliary Correlation fitting basis         ... NOT available
Auxiliary 'external' fitting basis          ... NOT available

Checking pre-screening integrals            ... done (  0.0 sec) Dimension = 48
   => SHARK Basis and OBASIS are compatible. Storing Pre-screening
Shell pair information
Shell pair cut-off parameter TPreSel        ...   2.5e-12
Total number of shell pairs                 ...      1176
Shell pairs after pre-screening             ...      1174
Total number of primitive shell pairs       ...      2053
Primitive shell pairs kept                  ...      2041
          la=0 lb=0:    171 shell pairs
          la=1 lb=0:    216 shell pairs
          la=1 lb=1:     78 shell pairs
          la=2 lb=0:    162 shell pairs
          la=2 lb=1:    108 shell pairs
          la=2 lb=2:     45 shell pairs
          la=3 lb=0:     72 shell pairs
          la=3 lb=1:     48 shell pairs
          la=3 lb=2:     36 shell pairs
          la=3 lb=3:     10 shell pairs
          la=4 lb=0:     53 shell pairs
          la=4 lb=1:     36 shell pairs
          la=4 lb=2:     27 shell pairs
          la=4 lb=3:     12 shell pairs
          la=4 lb=4:      6 shell pairs
          la=5 lb=0:     35 shell pairs
          la=5 lb=1:     24 shell pairs
          la=5 lb=2:     18 shell pairs
          la=5 lb=3:      8 shell pairs
          la=5 lb=4:      6 shell pairs
          la=5 lb=5:      3 shell pairs

Checking whether 4 symmetric matrices of dimension 176 fit in memory
:Max Core in MB      =   2000.00
 MB in use           =      7.26
 MB left             =   1992.74
 MB needed           =      0.48
 Data fit in memory  = YES
Calculating Nuclear repulsion               ... done (  0.0 sec) ENN=    -60.074828843031 Eh

Diagonalization of the overlap matrix:
Smallest eigenvalue                        ... 1.265e-03
Time for diagonalization                   ...    0.002 sec
Threshold for overlap eigenvalues          ... 1.000e-07
Number of eigenvalues below threshold      ... 0
Time for construction of square roots      ...    0.001 sec
Total time needed                          ...    0.004 sec

-------------------
DFT GRID GENERATION
-------------------

General Integration Accuracy     IntAcc      ... 4.388
Radial Grid Type                 RadialGrid  ... OptM3 with GC (2021)
Angular Grid (max. ang.)         AngularGrid ... 4 (Lebedev-302)
Angular grid pruning method      GridPruning ... 4 (adaptive)
Weight generation scheme         WeightScheme... mBecke (2022)
Basis function cutoff            BFCut       ... 1.0000e-11
Integration weight cutoff        WCut        ... 1.0000e-14
Partially contracted basis set               ... off
Rotationally invariant grid construction     ... off
Angular grids for H and He will be reduced by one unit
Core-polarized basis detected: some atoms will have their core
                               angular grid increased.
Steep s-basis detected: some atoms will have their radial
                        grid points doubled.

Total number of grid points                  ...    29240
Total number of batches                      ...      459
Average number of points per batch           ...       63
Average number of grid points per atom       ...     7310
Grids setup in   0.4 sec
Initializing property integral containers    ... done (  0.0 sec)

SHARK setup successfully completed in   0.6 seconds

Maximum memory used throughout the entire STARTUP-calculation: 38.2 MB


           ************************************************************
           *        Program running with 4 parallel MPI-processes     *
           *              working on a common directory               *
           ************************************************************
------------------------------------------------------------------------------
                          ORCA RELATIVISTIC HAMILTONIAN
------------------------------------------------------------------------------

Relativistic Method            ... DKH
Order of DKH treatment         ...   2
Treatment of potential         ... V(e,N)
Eps parameter for DKH          ...   0.00000000010000
Nucleus model                  ... Point Nucleus
Speed of light used            ... 137.03598950000000


            ************************************************
            *        DOUGLAS-KROLL-HESS HAMILTONIAN        *
            *   Programmed by FN according to literature   *
            *        procedures. Special thanks to         *
            *       B.A. Hess, M. Reiher and A. Wolf       *
            *     University Erlangen-Nuernberg/Bonn       *
            ************************************************

Uncontracting the basis (first version)        ... done
Number of contracted basis functions           ...  176
Number of uncontracted basis functions         ...  229
Initializing the DKH file                      ... done
Calculating the relativistic integrals         ... done
Storing DKH matrices                           ... done
Computing the DKH transformation               ... done
Storing the transformation variables           ... done
Transforming V and pVp to p**2 space           ... done
First transformation of V and pVp              ... done
Second transformation of Veff                  ... done
Adding kinetic energy                          ... done
Back transformation of Veff to r-space         ... done
Recovering DKH matrices                        ... done
Recontracting the H-matrix (first version)     ... done
Computing the DKH correction to the H-matrix   ... done
Reading the original H-matrix                  ... done
Adding DKH correction to the H-matrix          ... done
Storing the new modified H-matrix              ... done

Maximum memory used throughout the entire REL-calculation: 41.5 MB


           ************************************************************
           *        Program running with 4 parallel MPI-processes     *
           *              working on a common directory               *
           ************************************************************
-------------------------------------------------------------------------------
                                 ORCA GUESS
                   Start orbitals & Density for SCF / CASSCF
-------------------------------------------------------------------------------

------------
SCF SETTINGS
------------
Hamiltonian:
 Ab initio Hamiltonian  Method          .... Hartree-Fock(GTOs)

Relativistic Settings:
 Scalar relativistic method             .... Douglas-Kroll-Hess
 Order of DKH procedure    Order        ....    2
 Mode of DKH-treatment                  .... V=V(e,N)
 Speed of light used       Velit        ....       137.035989
 Cutoff-constant           Eps          ....            1e-10 


General Settings:
 Integral files         IntName         .... start
 Hartree-Fock type      HFTyp           .... RHF
 Total Charge           Charge          ....    4
 Multiplicity           Mult            ....    1
 Number of Electrons    NEL             ....   54
 Basis Dimension        Dim             ....  176
 Nuclear Repulsion      ENuc            ....    -60.0748288430 Eh

Convergence Acceleration:
 AO-DIIS                CNVDIIS         .... off
 MO-DIIS                CNVKDIIS        .... on
   # of expansion vecs  DIISMaxEq       ....     5
   Initial Damping      KDIISInitialDamp....     1
   Tranformation alg.   KDIISTransform  ....     1
 Trust-Rad. Augm. Hess. CNVTRAH         .... off
 SOSCF                 CNVSOSCF           .... on
   Start iteration     SOSCFMaxIt         ....   150
   Startup grad/error  SOSCFStart         ....  0.003300
   Hessian update      SOSCFHessUp        .... L-BFGS
   Autom. constraints  SOSCFAutoConstrain .... off
 Level Shifting         CNVShift        .... off
 Zerner damping         CNVZerner       .... off
 Static damping         CNVDamp         .... off

SCF Procedure:
 Maximum # iterations   MaxIter         ....   125
 SCF integral mode      SCFMode         .... Direct
   Integral package                     .... SHARK and LIBINT hybrid scheme
 Reset frequency        DirectResetFreq ....    20
 Integral Threshold     Thresh          ....  2.500e-11 Eh
 Primitive CutOff       TCut            ....  2.500e-12 Eh

Convergence Tolerance:
 Convergence Check Mode ConvCheckMode   .... Total+1el-Energy
 Convergence forced     ConvForced      .... 0
 Energy Change          TolE            ....  1.000e-08 Eh
 1-El. energy change                    ....  1.000e-05 Eh
 Orbital Gradient       TolG            ....  1.000e-05
 Orbital Rotation angle TolX            ....  1.000e-05

------------------------------
INITIAL GUESS: MODEL POTENTIAL
------------------------------
Loading DKH relativistic densities                 ... done
Calculating cut-offs                               ... done
Initializing the effective Hamiltonian             ... done
Setting up the integral package (SHARK)            ... done
Starting the Coulomb interaction                   ... done (   0.0 sec)
Making the grid                                    ... done (   0.1 sec)
Mapping shells                                     ... done
Starting the XC term evaluation                    ... done (   0.0 sec)
Transforming the Hamiltonian                       ... done (   0.0 sec)
Diagonalizing the Hamiltonian                      ... done (   0.0 sec)
Back transforming the eigenvectors                 ... done (   0.0 sec)
Now organizing SCF variables                       ... done
                      ------------------
                      INITIAL GUESS DONE (   0.1 sec)
                      ------------------
             **** ENERGY FILE WAS UPDATED (start.en.tmp) ****
Finished Guess after   0.2 sec
Maximum memory used throughout the entire GUESS-calculation: 18.6 MB


           ************************************************************
           *        Program running with 4 parallel MPI-processes     *
           *              working on a common directory               *
           ************************************************************

-------------------------------------------------------------------------------------------
                                      ORCA LEAN-SCF
                              memory conserving SCF solver
-------------------------------------------------------------------------------------------

----------------------------------------D-I-I-S--------------------------------------------
Iteration    Energy (Eh)           Delta-E    RMSDP     MaxDP     MaxGrad   Damp  Time(sec)
-------------------------------------------------------------------------------------------
               ***  Starting incremental Fock matrix formation  ***
                          ****Turning on DIIS(Cayley)****
    1    -8852.6521191125575569     0.00e+00  3.20e-03  8.13e-02  1.62e+00  0.900   2.4
    2    -8852.7517715097164910    -9.97e-02  5.04e-03  1.30e-01  1.46e+00  0.800   2.3
    3    -8852.8799594732245168    -1.28e-01  8.52e-03  2.19e-01  1.17e+00  0.600   2.3
    4    -8853.0376198195663164    -1.58e-01  1.36e-02  3.58e-01  7.01e-01  0.000   2.3
                              *** Initializing SOSCF ***
---------------------------------------S-O-S-C-F--------------------------------------
Iteration    Energy (Eh)           Delta-E    RMSDP     MaxDP     MaxGrad    Time(sec)
--------------------------------------------------------------------------------------
    5    -8853.1289389684607158    -9.13e-02  4.45e-04  9.51e-03  3.25e-03     2.3
               *** Restarting incremental Fock matrix formation ***
    6    -8853.1291126539435936    -1.74e-04  8.02e-05  1.55e-03  8.56e-04     2.3
    7    -8853.1291213365384465    -8.68e-06  3.24e-05  5.60e-04  2.24e-04     2.2
    8    -8853.1291224924898415    -1.16e-06  6.80e-06  8.87e-05  9.91e-05     2.1
    9    -8853.1291225786408177    -8.62e-08  3.33e-06  4.72e-05  3.07e-05     2.0
   10    -8853.1291225880122511    -9.37e-09  5.82e-07  1.16e-05  6.62e-06     1.9
                 **** Energy Check signals convergence ****

               *****************************************************
               *                     SUCCESS                       *
               *           SCF CONVERGED AFTER  10 CYCLES          *
               *****************************************************

             **** ENERGY FILE WAS UPDATED (start.en.tmp) ****

----------------
TOTAL SCF ENERGY
----------------

Total Energy       :      -8853.12912258827055 Eh         -240905.89084 eV

Components:
Nuclear Repulsion  :        -60.07482884303086 Eh           -1634.71920 eV
Electronic Energy  :      -8793.05429374523919 Eh         -239271.17164 eV
One Electron Energy:     -11923.84357263420497 Eh         -324464.27906 eV
Two Electron Energy:       3130.78927888896578 Eh           85193.10741 eV

Virial components:
Potential Energy   :     -19585.12926557680476 Eh         -532938.46138 eV
Kinetic Energy     :      10732.00014298853239 Eh          292032.57054 eV
Virial Ratio       :          1.82492815920919

---------------
SCF CONVERGENCE
---------------

  Last Energy change         ...    9.3714e-09  Tolerance :   1.0000e-08
  Last MAX-Density change    ...    1.1622e-05  Tolerance :   1.0000e-07
  Last RMS-Density change    ...    5.8238e-07  Tolerance :   5.0000e-09
  Last Orbital Gradient      ...    6.6233e-06  Tolerance :   1.0000e-05
  Last Orbital Rotation      ...    5.4416e-06  Tolerance :   1.0000e-05


----------------
ORBITAL ENERGIES
----------------

  NO   OCC          E(Eh)            E(eV) 
   0   2.0000   -1492.741150    -40619.5518 
   1   2.0000    -243.654657     -6630.1803 
   2   2.0000    -218.355536     -5941.7562 
   3   2.0000    -218.355536     -5941.7562 
   4   2.0000    -218.355526     -5941.7559 
   5   2.0000     -54.705743     -1488.6189 
   6   2.0000     -46.429047     -1263.3986 
   7   2.0000     -46.428453     -1263.3824 
   8   2.0000     -46.428453     -1263.3824 
   9   2.0000     -34.534703      -939.7370 
  10   2.0000     -34.534568      -939.7334 
  11   2.0000     -34.534568      -939.7334 
  12   2.0000     -34.534135      -939.7216 
  13   2.0000     -34.534135      -939.7216 
  14   2.0000     -12.271659      -333.9288 
  15   2.0000      -9.442045      -256.9311 
  16   2.0000      -9.441024      -256.9033 
  17   2.0000      -9.441024      -256.9033 
  18   2.0000      -5.208941      -141.7425 
  19   2.0000      -5.208547      -141.7318 
  20   2.0000      -5.208547      -141.7318 
  21   2.0000      -5.207378      -141.7000 
  22   2.0000      -5.207378      -141.7000 
  23   2.0000      -2.235767       -60.8383 
  24   2.0000      -1.387149       -37.7462 
  25   2.0000      -1.373420       -37.3727 
  26   2.0000      -1.373420       -37.3727 
  27   0.0000      -0.139828        -3.8049 
  28   0.0000      -0.138872        -3.7789 
  29   0.0000      -0.138872        -3.7789 
  30   0.0000      -0.136131        -3.7043 
  31   0.0000      -0.136131        -3.7043 
  32   0.0000      -0.130142        -3.5414 
  33   0.0000      -0.129965        -3.5365 
  34   0.0000      -0.053857        -1.4655 
  35   0.0000      -0.034118        -0.9284 
  36   0.0000      -0.034118        -0.9284 
  37   0.0000      -0.004706        -0.1281 
*Only the first 10 virtual orbitals were printed.

                    ********************************
                    * MULLIKEN POPULATION ANALYSIS *
                    ********************************

-----------------------
MULLIKEN ATOMIC CHARGES
-----------------------
   0 Ce:    4.000000
   1 Q :   -2.000000
   2 Q :   -2.000000
   3 Q :   -2.000000
Sum of atomic charges:   -2.0000000

--------------------------------
MULLIKEN REDUCED ORBITAL CHARGES
--------------------------------
  0 Ces       :    10.000995  s :    10.000995
      pz      :     7.996590  p :    23.990049
      px      :     7.996730
      py      :     7.996730
      dz2     :     4.002104  d :    20.008257
      dxz     :     4.002884
      dyz     :     4.002884
      dx2y2   :     4.000192
      dxy     :     4.000192
      f0      :     0.000265  f :     0.000686
      f+1     :     0.000181
      f-1     :     0.000181
      f+2     :     0.000009
      f-2     :     0.000009
      f+3     :     0.000042
      f-3     :     0.000000
      g0      :     0.000001  g :     0.000012
      g+1     :     0.000001
      g-1     :     0.000001
      g+2     :     0.000000
      g-2     :     0.000000
      g+3     :     0.000002
      g-3     :     0.000000
      g+4     :     0.000003
      g-4     :     0.000003
      h0      :     0.000000  h :     0.000000
      h+1     :     0.000000
      h-1     :     0.000000
      h+2     :     0.000000
      h-2     :     0.000000
      h+3     :     0.000000
      h-3     :     0.000000
      h+4     :     0.000000
      h-4     :     0.000000
      h+5     :     0.000000
      h-5     :     0.000000

  1 Q 

  2 Q 

  3 Q 


-------------------------------------------
MULLIKEN REDUCED ORBITAL POPULATIONS PER MO
--------------------------------------------
THRESHOLD FOR PRINTING IS 0.1%%
                      0         1         2         3         4         5   
                 -1492.74115 -243.65466 -218.35554 -218.35554 -218.35553 -54.70574
                   2.00000   2.00000   2.00000   2.00000   2.00000   2.00000
                  --------  --------  --------  --------  --------  --------
 0 Ce s             100.0     100.0       0.0       0.0       0.0     100.0
 0 Ce pz              0.0       0.0       0.0       0.0     100.0       0.0
 0 Ce px              0.0       0.0      95.8       4.2       0.0       0.0
 0 Ce py              0.0       0.0       4.2      95.8       0.0       0.0

                      6         7         8         9        10        11   
                 -46.42905 -46.42845 -46.42845 -34.53470 -34.53457 -34.53457
                   2.00000   2.00000   2.00000   2.00000   2.00000   2.00000
                  --------  --------  --------  --------  --------  --------
 0 Ce pz            100.0       0.0       0.0       0.0       0.0       0.0
 0 Ce px              0.0      24.4      75.6       0.0       0.0       0.0
 0 Ce py              0.0      75.6      24.4       0.0       0.0       0.0
 0 Ce dz2             0.0       0.0       0.0     100.0       0.0       0.0
 0 Ce dxz             0.0       0.0       0.0       0.0      18.5      81.5
 0 Ce dyz             0.0       0.0       0.0       0.0      81.5      18.5

                     12        13        14        15        16        17   
                 -34.53413 -34.53413 -12.27166  -9.44204  -9.44102  -9.44102
                   2.00000   2.00000   2.00000   2.00000   2.00000   2.00000
                  --------  --------  --------  --------  --------  --------
 0 Ce s               0.0       0.0     100.0       0.0       0.0       0.0
 0 Ce pz              0.0       0.0       0.0     100.0       0.0       0.0
 0 Ce px              0.0       0.0       0.0       0.0     100.0       0.0
 0 Ce py              0.0       0.0       0.0       0.0       0.0     100.0
 0 Ce dx2y2          78.9      21.1       0.0       0.0       0.0       0.0
 0 Ce dxy            21.1      78.9       0.0       0.0       0.0       0.0

                     18        19        20        21        22        23   
                  -5.20894  -5.20855  -5.20855  -5.20738  -5.20738  -2.23577
                   2.00000   2.00000   2.00000   2.00000   2.00000   2.00000
                  --------  --------  --------  --------  --------  --------
 0 Ce s               0.0       0.0       0.0       0.0       0.0      99.8
 0 Ce pz              0.0       0.0       0.0       0.0       0.0       0.2
 0 Ce dz2           100.0       0.0       0.0       0.0       0.0       0.0
 0 Ce dxz             0.0      53.0      46.9       0.0       0.1       0.0
 0 Ce dyz             0.0      46.9      53.0       0.1       0.0       0.0
 0 Ce dx2y2           0.0       0.1       0.1      20.1      79.8       0.0
 0 Ce dxy             0.0       0.1       0.1      79.8      20.1       0.0

                     24        25        26        27        28        29   
                  -1.38715  -1.37342  -1.37342  -0.13983  -0.13887  -0.13887
                   2.00000   2.00000   2.00000   0.00000   0.00000   0.00000
                  --------  --------  --------  --------  --------  --------
 0 Ce s               0.2       0.0       0.0       0.0       0.0       0.0
 0 Ce pz             99.7       0.0       0.0       0.2       0.0       0.0
 0 Ce px              0.0      38.4      61.5       0.0       0.0       0.1
 0 Ce py              0.0      61.5      38.4       0.0       0.1       0.0
 0 Ce dz2             0.1       0.0       0.0       4.1       0.0       0.0
 0 Ce dxz             0.0       0.1       0.1       0.0       0.0       3.4
 0 Ce dyz             0.0       0.1       0.1       0.0       3.4       0.0
 0 Ce f0              0.0       0.0       0.0      95.6       0.0       0.0
 0 Ce f+1             0.0       0.0       0.0       0.0       0.0      96.4
 0 Ce f-1             0.0       0.0       0.0       0.0      96.4       0.0

                     30        31        32        33        34        35   
                  -0.13613  -0.13613  -0.13014  -0.12996  -0.05386  -0.03412
                   0.00000   0.00000   0.00000   0.00000   0.00000   0.00000
                  --------  --------  --------  --------  --------  --------
 0 Ce s               0.0       0.0       0.0       0.0      11.7       0.0
 0 Ce pz              0.0       0.0       0.0       0.0       7.8       0.0
 0 Ce px              0.0       0.0       0.0       0.0       0.0       0.7
 0 Ce py              0.0       0.0       0.0       0.0       0.0       2.3
 0 Ce dz2             0.0       0.0       0.2       0.0      75.9       0.0
 0 Ce dxz             0.1       0.0       0.0       0.0       0.0      21.9
 0 Ce dyz             0.0       0.1       0.0       0.0       0.0      70.2
 0 Ce dx2y2           2.1       0.1       0.0       0.0       0.0       0.2
 0 Ce dxy             0.1       2.1       0.0       0.0       0.0       0.6
 0 Ce f0              0.0       0.0       0.1       0.0       4.4       0.0
 0 Ce f+1             0.0       0.0       0.0       0.0       0.0       1.0
 0 Ce f-1             0.0       0.0       0.0       0.0       0.0       3.1
 0 Ce f+2            94.7       2.9       0.0       0.0       0.0       0.0
 0 Ce f-2             2.9      94.7       0.0       0.0       0.0       0.0
 0 Ce f+3             0.0       0.0      99.7       0.0       0.2       0.0
 0 Ce f-3             0.0       0.0       0.0     100.0       0.0       0.0

                     36        37        38        39        40        41   
                  -0.03412  -0.00471  -0.00471   0.04401   0.15647   0.20069
                   0.00000   0.00000   0.00000   0.00000   0.00000   0.00000
                  --------  --------  --------  --------  --------  --------
 0 Ce s               0.0       0.0       0.0      49.0      42.2       0.0
 0 Ce pz              0.0       0.0       0.0      26.9      50.1       0.0
 0 Ce px              2.3       0.8       0.1       0.0       0.0      63.5
 0 Ce py              0.7       0.1       0.8       0.0       0.0       3.1
 0 Ce dz2             0.0       0.0       0.0      23.4       7.5       0.0
 0 Ce dxz            70.2       0.5       0.1       0.0       0.0      29.3
 0 Ce dyz            21.9       0.1       0.5       0.0       0.0       1.4
 0 Ce dx2y2           0.6      85.1      10.6       0.0       0.0       2.4
 0 Ce dxy             0.2      10.6      85.1       0.0       0.0       0.1
 0 Ce f0              0.0       0.0       0.0       0.4       0.1       0.0
 0 Ce f+1             3.1       0.0       0.0       0.0       0.0       0.1
 0 Ce f-1             1.0       0.0       0.0       0.0       0.0       0.0
 0 Ce f+2             0.0       2.5       0.3       0.0       0.0       0.0
 0 Ce f-2             0.0       0.3       2.5       0.0       0.0       0.0
 0 Ce f+3             0.0       0.0       0.0       0.3       0.1       0.0

                     42        43        44        45        46        47   
                   0.20069   0.27379   0.28370   0.28370   0.31984   0.36845
                   0.00000   0.00000   0.00000   0.00000   0.00000   0.00000
                  --------  --------  --------  --------  --------  --------
 0 Ce s               0.0      36.0       0.0       0.0      28.7       0.0
 0 Ce pz              0.0      57.5       0.0       0.0      50.4       0.0
 0 Ce px              3.1       0.0      52.6      36.2       0.0       0.0
 0 Ce py             63.5       0.0      36.2      52.6       0.0      14.5
 0 Ce dz2             0.0       4.9       0.0       0.0      20.7       0.0
 0 Ce dxz             1.4       0.0       5.6       3.9       0.0       0.1
 0 Ce dyz            29.3       0.0       3.9       5.6       0.0      48.1
 0 Ce dx2y2           0.1       0.0       0.8       0.6       0.0       0.1
 0 Ce dxy             2.4       0.0       0.6       0.8       0.0      37.1
 0 Ce f0              0.0       1.0       0.0       0.0       0.1       0.0
 0 Ce f+1             0.0       0.0       0.2       0.1       0.0       0.0
 0 Ce f-1             0.1       0.0       0.1       0.2       0.0       0.0
 0 Ce f+3             0.0       0.6       0.0       0.0       0.0       0.0

                     48        49        50        51        52        53   
                   0.36845   0.37367   0.44028   0.44028   0.47037   0.56255
                   0.00000   0.00000   0.00000   0.00000   0.00000   0.00000
                  --------  --------  --------  --------  --------  --------
 0 Ce s               0.0      37.4       0.0       0.0      27.0       3.7
 0 Ce pz              0.0       8.3       0.0       0.0      60.7       6.3
 0 Ce px             14.5       0.0      17.4      22.3       0.0       0.0
 0 Ce py              0.0       0.0      22.3      17.4       0.0       0.0
 0 Ce dz2             0.0      54.3       0.0       0.0      10.8      84.5
 0 Ce dxz            48.1       0.0       5.4       6.9       0.0       0.0
 0 Ce dyz             0.1       0.0       6.9       5.4       0.0       0.0
 0 Ce dx2y2          37.1       0.0      20.6      26.5       0.0       0.0
 0 Ce dxy             0.1       0.0      26.5      20.6       0.0       0.0
 0 Ce f0              0.0       0.0       0.0       0.0       1.2       4.7
 0 Ce f+1             0.0       0.0       0.2       0.3       0.0       0.0
 0 Ce f-1             0.0       0.0       0.3       0.2       0.0       0.0
 0 Ce f+2             0.0       0.0       0.2       0.3       0.0       0.0
 0 Ce f-2             0.0       0.0       0.3       0.2       0.0       0.0
 0 Ce f+3             0.0       0.0       0.0       0.0       0.3       0.8

                     54        55        56        57        58        59   
                   0.58617   0.58617   0.64380   0.64380   0.67685   0.68622
                   0.00000   0.00000   0.00000   0.00000   0.00000   0.00000
                  --------  --------  --------  --------  --------  --------
 0 Ce s               0.0       0.0       0.0       0.0      56.9       0.0
 0 Ce pz              0.0       0.0       0.0       0.0      30.5       0.0
 0 Ce px              0.4       3.8      12.7       2.7       0.0      45.7
 0 Ce py              3.8       0.4       2.7      12.7       0.0       9.3
 0 Ce dz2             0.0       0.0       0.0       0.0       3.6       0.0
 0 Ce dxz             4.5      44.1      21.1       4.4       0.0      10.4
 0 Ce dyz            44.1       4.5       4.4      21.1       0.0       2.1
 0 Ce dx2y2           3.8      36.6      26.3       5.5       0.0       8.9
 0 Ce dxy            36.6       3.8       5.5      26.3       0.0       1.8
 0 Ce f0              0.0       0.0       0.0       0.0       7.8       0.0
 0 Ce f+1             0.5       5.1       0.1       0.0       0.0       5.2
 0 Ce f-1             5.1       0.5       0.0       0.1       0.0       1.1
 0 Ce f+2             0.1       1.1      22.5       4.7       0.0      12.9
 0 Ce f-2             1.1       0.1       4.7      22.5       0.0       2.6
 0 Ce f+3             0.0       0.0       0.0       0.0       1.2       0.0

                     60        61        62        63        64        65   
                   0.68622   0.71201   0.72488   0.72488   0.75286   0.79517
                   0.00000   0.00000   0.00000   0.00000   0.00000   0.00000
                  --------  --------  --------  --------  --------  --------
 0 Ce s               0.0       2.4       0.0       0.0       0.0       4.7
 0 Ce pz              0.0       0.4       0.0       0.0       0.0       0.8
 0 Ce px              9.3       0.0       0.3       3.3       0.0       0.0
 0 Ce py             45.7       0.0       3.3       0.3       0.0       0.0
 0 Ce dz2             0.0       3.9       0.0       0.0       0.0       6.2
 0 Ce dxz             2.1       0.0       0.5       5.7       0.0       0.0
 0 Ce dyz            10.4       0.0       5.7       0.5       0.0       0.0
 0 Ce dx2y2           1.8       0.0       0.2       2.0       0.0       0.0
 0 Ce dxy             8.9       0.0       2.0       0.2       0.0       0.0
 0 Ce f0              0.0      66.6       0.0       0.0       0.0      18.1
 0 Ce f+1             1.1       0.0       7.0      79.2       0.0       0.0
 0 Ce f-1             5.2       0.0      79.2       7.0       0.0       0.0
 0 Ce f+2             2.6       0.0       0.2       1.7       0.0       0.0
 0 Ce f-2            12.9       0.0       1.7       0.2       0.0       0.0
 0 Ce f+3             0.0      26.7       0.0       0.0       0.0      70.2
 0 Ce f-3             0.0       0.0       0.0       0.0     100.0       0.0

                     66        67        68        69        70        71   
                   0.80100   0.80100   1.38372   1.39062   1.39062   1.42436
                   0.00000   0.00000   0.00000   0.00000   0.00000   0.00000
                  --------  --------  --------  --------  --------  --------
 0 Ce s               0.0       0.0       0.5       0.0       0.0       7.1
 0 Ce pz              0.0       0.0       8.6       0.0       0.0      84.6
 0 Ce px              1.3       6.4       0.0       3.6       0.6       0.0
 0 Ce py              6.4       1.3       0.0       0.6       3.6       0.0
 0 Ce dz2             0.0       0.0      90.9       0.0       0.0       8.2
 0 Ce dxz             1.8       8.9       0.0      67.9      11.0       0.0
 0 Ce dyz             8.9       1.8       0.0      11.0      67.9       0.0
 0 Ce dx2y2           4.8      23.2       0.0      14.4       2.3       0.0
 0 Ce dxy            23.2       4.8       0.0       2.3      14.4       0.0
 0 Ce f0              0.0       0.0       0.1       0.0       0.0       0.1
 0 Ce f+1             0.1       0.2       0.0       0.1       0.0       0.0
 0 Ce f-1             0.2       0.1       0.0       0.0       0.1       0.0
 0 Ce f+2             9.2      44.1       0.0       0.0       0.0       0.0
 0 Ce f-2            44.1       9.2       0.0       0.0       0.0       0.0

                     72        73        74        75        76        77   
                   1.44807   1.44807   1.50979   1.50979   1.64424   2.02131
                   0.00000   0.00000   0.00000   0.00000   0.00000   0.00000
                  --------  --------  --------  --------  --------  --------
 0 Ce s               0.0       0.0       0.0       0.0      92.2       0.0
 0 Ce pz              0.0       0.0       0.0       0.0       6.8       0.1
 0 Ce px              2.8      21.2       2.6      69.6       0.0       0.0
 0 Ce py             21.2       2.8      69.6       2.6       0.0       0.0
 0 Ce dz2             0.0       0.0       0.0       0.0       0.5       0.1
 0 Ce dxz             0.8       6.5       0.5      12.8       0.0       0.0
 0 Ce dyz             6.5       0.8      12.8       0.5       0.0       0.0
 0 Ce dx2y2           7.9      60.7       0.5      14.0       0.0       0.0
 0 Ce dxy            60.7       7.9      14.0       0.5       0.0       0.0
 0 Ce f0              0.0       0.0       0.0       0.0       0.2      88.1
 0 Ce f+2             0.0       0.1       0.0       0.0       0.0       0.0
 0 Ce f-2             0.1       0.0       0.0       0.0       0.0       0.0
 0 Ce f+3             0.0       0.0       0.0       0.0       0.3      11.7

                     78        79        80        81        82        83   
                   2.02505   2.02505   2.03814   2.03814   2.04663   2.05980
                   0.00000   0.00000   0.00000   0.00000   0.00000   0.00000
                  --------  --------  --------  --------  --------  --------
 0 Ce s               0.0       0.0       0.0       0.0       0.0       0.4
 0 Ce dxz             0.0       0.1       0.0       0.0       0.0       0.0
 0 Ce dyz             0.1       0.0       0.0       0.0       0.0       0.0
 0 Ce dx2y2           0.0       0.0       0.1       0.1       0.0       0.0
 0 Ce dxy             0.0       0.0       0.1       0.1       0.0       0.0
 0 Ce f0              0.0       0.0       0.0       0.0       0.0      11.4
 0 Ce f+1             0.5      98.9       0.2       0.1       0.0       0.0
 0 Ce f-1            98.9       0.5       0.1       0.2       0.0       0.0
 0 Ce f+2             0.0       0.3      65.1      34.2       0.0       0.0
 0 Ce f-2             0.3       0.0      34.2      65.1       0.0       0.0
 0 Ce f+3             0.0       0.0       0.0       0.0       0.0      88.0
 0 Ce f-3             0.0       0.0       0.0       0.0     100.0       0.0

                     84        85        86        87        88        89   
                   2.99183   2.99257   2.99257   2.99473   2.99473   2.99803
                   0.00000   0.00000   0.00000   0.00000   0.00000   0.00000
                  --------  --------  --------  --------  --------  --------
 0 Ce g0             97.6       0.0       0.0       0.0       0.0       0.0
 0 Ce g+1             0.0       1.8      96.0       0.8       0.6       0.0
 0 Ce g-1             0.0      96.0       1.8       0.6       0.8       0.0
 0 Ce g+2             0.0       0.0       1.4      53.5      45.0       0.0
 0 Ce g-2             0.0       1.4       0.0      45.0      53.5       0.0
 0 Ce g+3             2.4       0.0       0.0       0.0       0.0       0.0
 0 Ce g-3             0.0       0.0       0.0       0.0       0.0     100.0
 0 Ce g+4             0.0       0.0       0.7       0.0       0.0       0.0
 0 Ce g-4             0.0       0.7       0.0       0.0       0.0       0.0

                     90        91        92        93        94        95   
                   2.99837   3.00249   3.00249   4.35343   4.35676   4.35676
                   0.00000   0.00000   0.00000   0.00000   0.00000   0.00000
                  --------  --------  --------  --------  --------  --------
 0 Ce dz2             0.0       0.0       0.0     100.0       0.0       0.0
 0 Ce dxz             0.0       0.0       0.0       0.0       1.1      87.2
 0 Ce dyz             0.0       0.0       0.0       0.0      87.2       1.1
 0 Ce dx2y2           0.0       0.0       0.0       0.0       0.1      11.5
 0 Ce dxy             0.0       0.0       0.0       0.0      11.5       0.1
 0 Ce g0              2.4       0.0       0.0       0.0       0.0       0.0
 0 Ce g+1             0.0       0.0       0.7       0.0       0.0       0.0
 0 Ce g-1             0.0       0.7       0.0       0.0       0.0       0.0
 0 Ce g+3            97.6       0.0       0.0       0.0       0.0       0.0
 0 Ce g+4             0.0       0.3      99.0       0.0       0.0       0.0
 0 Ce g-4             0.0      99.0       0.3       0.0       0.0       0.0

                     96        97        98        99       100       101   
                   4.37362   4.37362   5.94750   5.94863   5.94863   5.95240
                   0.00000   0.00000   0.00000   0.00000   0.00000   0.00000
                  --------  --------  --------  --------  --------  --------
 0 Ce dxz             3.6       8.1       0.0       0.0       0.0       0.0
 0 Ce dyz             8.1       3.6       0.0       0.0       0.0       0.0
 0 Ce dx2y2          27.1      61.2       0.0       0.0       0.0       0.0
 0 Ce dxy            61.2      27.1       0.0       0.0       0.0       0.0
 0 Ce f0              0.0       0.0      94.0       0.0       0.0       0.0
 0 Ce f+1             0.0       0.0       0.0      98.9       0.1       0.0
 0 Ce f-1             0.0       0.0       0.0       0.1      98.9       0.9
 0 Ce f+2             0.0       0.0       0.0       0.9       0.0       1.4
 0 Ce f-2             0.0       0.0       0.0       0.0       0.9      97.6
 0 Ce f+3             0.0       0.0       5.9       0.0       0.0       0.0

                    102       103       104       105       106       107   
                   5.95240   5.95638   5.95847   5.99196   6.00482   6.00482
                   0.00000   0.00000   0.00000   0.00000   0.00000   0.00000
                  --------  --------  --------  --------  --------  --------
 0 Ce pz              0.0       0.0       0.2      99.7       0.0       0.0
 0 Ce px              0.1       0.0       0.0       0.0      94.8       5.1
 0 Ce py              0.0       0.0       0.0       0.0       5.1      94.8
 0 Ce f0              0.0       0.0       5.8       0.2       0.0       0.0
 0 Ce f+1             0.9       0.0       0.0       0.0       0.1       0.0
 0 Ce f+2            97.6       0.0       0.0       0.0       0.1       0.0
 0 Ce f-2             1.4       0.0       0.0       0.0       0.0       0.1
 0 Ce f+3             0.0       0.0      94.0       0.1       0.0       0.0
 0 Ce f-3             0.0     100.0       0.0       0.0       0.0       0.0

                    108       109       110       111       112       113   
                   7.57262  12.51210  12.51223  12.51223  12.51264  12.51264
                   0.00000   0.00000   0.00000   0.00000   0.00000   0.00000
                  --------  --------  --------  --------  --------  --------
 0 Ce s             100.0       0.0       0.0       0.0       0.0       0.0
 0 Ce g0              0.0      99.5       0.0       0.0       0.0       0.0
 0 Ce g+1             0.0       0.0       2.6      96.9       0.2       0.1
 0 Ce g-1             0.0       0.0      96.9       2.6       0.1       0.2
 0 Ce g+2             0.0       0.0       0.0       0.3      55.5      44.2
 0 Ce g-2             0.0       0.0       0.3       0.0      44.2      55.5
 0 Ce g+3             0.0       0.5       0.0       0.0       0.0       0.0
 0 Ce g+4             0.0       0.0       0.0       0.1       0.0       0.0
 0 Ce g-4             0.0       0.0       0.1       0.0       0.0       0.0

                    114       115       116       117       118       119   
                  12.51329  12.51331  12.51419  12.51419  15.41478  15.41577
                   0.00000   0.00000   0.00000   0.00000   0.00000   0.00000
                  --------  --------  --------  --------  --------  --------
 0 Ce dz2             0.0       0.0       0.0       0.0     100.0       0.0
 0 Ce dxz             0.0       0.0       0.0       0.0       0.0      55.9
 0 Ce dyz             0.0       0.0       0.0       0.0       0.0      37.6
 0 Ce dx2y2           0.0       0.0       0.0       0.0       0.0       3.9
 0 Ce dxy             0.0       0.0       0.0       0.0       0.0       2.6
 0 Ce g0              0.0       0.5       0.0       0.0       0.0       0.0
 0 Ce g+1             0.0       0.0       0.1       0.0       0.0       0.0
 0 Ce g-1             0.0       0.0       0.0       0.1       0.0       0.0
 0 Ce g+3             0.0      99.5       0.0       0.0       0.0       0.0
 0 Ce g-3           100.0       0.0       0.0       0.0       0.0       0.0
 0 Ce g+4             0.0       0.0      97.6       2.3       0.0       0.0
 0 Ce g-4             0.0       0.0       2.3      97.6       0.0       0.0

                    120       121       122       123       124       125   
                  15.41577  15.41941  15.41941  15.61194  15.61201  15.61201
                   0.00000   0.00000   0.00000   0.00000   0.00000   0.00000
                  --------  --------  --------  --------  --------  --------
 0 Ce dxz            37.6       6.3       0.2       0.0       0.0       0.0
 0 Ce dyz            55.9       0.2       6.3       0.0       0.0       0.0
 0 Ce dx2y2           2.6      90.0       3.4       0.0       0.0       0.0
 0 Ce dxy             3.9       3.4      90.0       0.0       0.0       0.0
 0 Ce h0              0.0       0.0       0.0      99.6       0.0       0.0
 0 Ce h+1             0.0       0.0       0.0       0.0       4.3      95.3
 0 Ce h-1             0.0       0.0       0.0       0.0      95.3       4.3
 0 Ce h+2             0.0       0.0       0.0       0.0       0.0       0.2
 0 Ce h-2             0.0       0.0       0.0       0.0       0.2       0.0
 0 Ce h+3             0.0       0.0       0.0       0.4       0.0       0.0
 0 Ce h+4             0.0       0.0       0.0       0.0       0.0       0.1
 0 Ce h-4             0.0       0.0       0.0       0.0       0.1       0.0

                    126       127       128       129       130       131   
                  15.61223  15.61223  15.61259  15.61260  15.61309  15.61309
                   0.00000   0.00000   0.00000   0.00000   0.00000   0.00000
                  --------  --------  --------  --------  --------  --------
 0 Ce h0              0.0       0.0       0.0       0.4       0.0       0.0
 0 Ce h+1             0.2       0.1       0.0       0.0       0.1       0.0
 0 Ce h-1             0.1       0.2       0.0       0.0       0.0       0.1
 0 Ce h+2            70.7      28.9       0.0       0.0       0.0       0.0
 0 Ce h-2            28.9      70.7       0.0       0.0       0.0       0.0
 0 Ce h+3             0.0       0.0       0.0      99.6       0.0       0.0
 0 Ce h-3             0.0       0.0     100.0       0.0       0.0       0.0
 0 Ce h+4             0.0       0.0       0.0       0.0      99.3       0.6
 0 Ce h-4             0.0       0.0       0.0       0.0       0.6      99.3

                    132       133       134       135       136       137   
                  15.61370  15.61370  29.64945  29.65191  29.65191  41.81433
                   0.00000   0.00000   0.00000   0.00000   0.00000   0.00000
                  --------  --------  --------  --------  --------  --------
 0 Ce s               0.0       0.0       0.0       0.0       0.0     100.0
 0 Ce pz              0.0       0.0     100.0       0.0       0.0       0.0
 0 Ce px              0.0       0.0       0.0      96.2       3.8       0.0
 0 Ce py              0.0       0.0       0.0       3.8      96.2       0.0
 0 Ce h+5            11.4      88.5       0.0       0.0       0.0       0.0
 0 Ce h-5            88.5      11.4       0.0       0.0       0.0       0.0

                    138       139       140       141       142       143   
                  44.32784  44.32791  44.32791  44.32813  44.32813  44.32848
                   0.00000   0.00000   0.00000   0.00000   0.00000   0.00000
                  --------  --------  --------  --------  --------  --------
 0 Ce h0             99.8       0.0       0.0       0.0       0.0       0.0
 0 Ce h+1             0.0       4.0      95.8       0.1       0.0       0.0
 0 Ce h-1             0.0      95.8       4.0       0.0       0.1       0.0
 0 Ce h+2             0.0       0.0       0.1      99.1       0.8       0.0
 0 Ce h-2             0.0       0.1       0.0       0.8      99.1       0.0
 0 Ce h+3             0.2       0.0       0.0       0.0       0.0       0.0
 0 Ce h-3             0.0       0.0       0.0       0.0       0.0     100.0

                    144       145       146       147       148       149   
                  44.32848  44.32898  44.32898  44.32961  44.32961  57.47628
                   0.00000   0.00000   0.00000   0.00000   0.00000   0.00000
                  --------  --------  --------  --------  --------  --------
 0 Ce dz2             0.0       0.0       0.0       0.0       0.0     100.0
 0 Ce h0              0.2       0.0       0.0       0.0       0.0       0.0
 0 Ce h+3            99.8       0.0       0.0       0.0       0.0       0.0
 0 Ce h+4             0.0      23.3      76.6       0.0       0.0       0.0
 0 Ce h-4             0.0      76.6      23.3       0.0       0.0       0.0
 0 Ce h+5             0.0       0.0       0.0      22.8      77.1       0.0
 0 Ce h-5             0.0       0.0       0.0      77.1      22.8       0.0

                    150       151       152       153       154       155   
                  57.47661  57.47661  57.47764  57.47764  65.88542  65.88549
                   0.00000   0.00000   0.00000   0.00000   0.00000   0.00000
                  --------  --------  --------  --------  --------  --------
 0 Ce dxz            28.1      69.8       1.1       1.1       0.0       0.0
 0 Ce dyz            69.8      28.1       1.1       1.1       0.0       0.0
 0 Ce dx2y2           0.6       1.5      48.7      49.2       0.0       0.0
 0 Ce dxy             1.5       0.6      49.2      48.7       0.0       0.0
 0 Ce g0              0.0       0.0       0.0       0.0      99.9       0.0
 0 Ce g+1             0.0       0.0       0.0       0.0       0.0      14.7
 0 Ce g-1             0.0       0.0       0.0       0.0       0.0      85.2
 0 Ce g+3             0.0       0.0       0.0       0.0       0.1       0.0

                    156       157       158       159       160       161   
                  65.88549  65.88571  65.88571  65.88608  65.88608  65.88659
                   0.00000   0.00000   0.00000   0.00000   0.00000   0.00000
                  --------  --------  --------  --------  --------  --------
 0 Ce g0              0.0       0.0       0.0       0.0       0.1       0.0
 0 Ce g+1            85.2       0.0       0.0       0.0       0.0       0.0
 0 Ce g-1            14.7       0.0       0.0       0.0       0.0       0.0
 0 Ce g+2             0.1      45.4      54.5       0.0       0.0       0.0
 0 Ce g-2             0.0      54.5      45.4       0.0       0.0       0.0
 0 Ce g+3             0.0       0.0       0.0       0.0      99.9       0.0
 0 Ce g-3             0.0       0.0       0.0     100.0       0.0       0.0
 0 Ce g+4             0.0       0.0       0.0       0.0       0.0     100.0

                    162       163       164       165       166       167   
                  65.88659 139.40606 139.40673 139.40673 208.64104 602.58931
                   0.00000   0.00000   0.00000   0.00000   0.00000   0.00000
                  --------  --------  --------  --------  --------  --------
 0 Ce s               0.0       0.0       0.0       0.0     100.0       0.0
 0 Ce pz              0.0     100.0       0.0       0.0       0.0     100.0
 0 Ce px              0.0       0.0      99.9       0.1       0.0       0.0
 0 Ce py              0.0       0.0       0.1      99.9       0.0       0.0
 0 Ce g-4           100.0       0.0       0.0       0.0       0.0       0.0

                    168       169       170       171       172       173   
                 602.58948 602.58948 817.31395 2550.23269 6577.57682 14633.89502
                   0.00000   0.00000   0.00000   0.00000   0.00000   0.00000
                  --------  --------  --------  --------  --------  --------
 0 Ce s               0.0       0.0     100.0     100.0     100.0     100.0
 0 Ce px             98.9       1.1       0.0       0.0       0.0       0.0
 0 Ce py              1.1      98.9       0.0       0.0       0.0       0.0

                    174       175   
                 29191.09914 66329.20894
                   0.00000   0.00000
                  --------  --------
 0 Ce s             100.0     100.0


                     *******************************
                     * LOEWDIN POPULATION ANALYSIS *
                     *******************************

----------------------
LOEWDIN ATOMIC CHARGES
----------------------
   0 Ce:    4.000000
   1 Q :   -2.000000
   2 Q :   -2.000000
   3 Q :   -2.000000

-------------------------------
LOEWDIN REDUCED ORBITAL CHARGES
-------------------------------
  0 Ces       :    10.000995  s :    10.000995
      pz      :     7.996590  p :    23.990049
      px      :     7.996730
      py      :     7.996730
      dz2     :     4.002104  d :    20.008257
      dxz     :     4.002884
      dyz     :     4.002884
      dx2y2   :     4.000192
      dxy     :     4.000192
      f0      :     0.000265  f :     0.000686
      f+1     :     0.000181
      f-1     :     0.000181
      f+2     :     0.000009
      f-2     :     0.000009
      f+3     :     0.000042
      f-3     :     0.000000
      g0      :     0.000001  g :     0.000012
      g+1     :     0.000001
      g-1     :     0.000001
      g+2     :     0.000000
      g-2     :     0.000000
      g+3     :     0.000002
      g-3     :     0.000000
      g+4     :     0.000003
      g-4     :     0.000003
      h0      :     0.000000  h :     0.000000
      h+1     :     0.000000
      h-1     :     0.000000
      h+2     :     0.000000
      h-2     :     0.000000
      h+3     :     0.000000
      h-3     :     0.000000
      h+4     :     0.000000
      h-4     :     0.000000
      h+5     :     0.000000
      h-5     :     0.000000

  1 Q 

  2 Q 

  3 Q 



                      *****************************
                      * MAYER POPULATION ANALYSIS *
                      *****************************

  NA   - Mulliken gross atomic population
  ZA   - Total nuclear charge
  QA   - Mulliken gross atomic charge
  VA   - Mayer's total valence
  BVA  - Mayer's bonded valence
  FA   - Mayer's free valence

  ATOM       NA         ZA         QA         VA         BVA        FA
  0 Ce    54.0000    58.0000     4.0000     0.0000     0.0000     0.0000
  1 Q      0.0000    -2.0000    -2.0000     0.0000     0.0000     0.0000
  2 Q      0.0000    -2.0000    -2.0000     0.0000     0.0000     0.0000
  3 Q      0.0000    -2.0000    -2.0000     0.0000     0.0000     0.0000

  Mayer bond orders larger than 0.100000
  => no bond orders to print

-------
TIMINGS
-------

Total SCF time: 0 days 0 hours 0 min 23 sec 

Total time                  ....      23.970 sec
Sum of individual times     ....      22.179 sec  ( 92.5%)

SCF preparation             ....       0.064 sec  (  0.3%)
Fock matrix formation       ....      22.012 sec  ( 91.8%)
  Startup                   ....       0.002 sec  (  0.0% of F)
  Coulomb+Exchange Fock     ....      23.781 sec  (108.0% of F)
Diagonalization             ....       0.000 sec  (  0.0%)
Density matrix formation    ....       0.012 sec  (  0.0%)
Total Energy calculation    ....       0.006 sec  (  0.0%)
Population analysis         ....       0.014 sec  (  0.1%)
Orbital Transformation      ....       0.007 sec  (  0.0%)
Orbital Orthonormalization  ....       0.000 sec  (  0.0%)
DIIS solution               ....       0.027 sec  (  0.1%)
SOSCF solution              ....       0.036 sec  (  0.1%)
Finished LeanSCF after  24.0 sec

Maximum memory used throughout the entire LEANSCF-calculation: 38.4 MB


           ************************************************************
           *        Program running with 4 parallel MPI-processes     *
           *              working on a common directory               *
           ************************************************************

------------------------------------------------------------------------------
                         ORCA PROPERTY INTEGRAL CALCULATIONS
------------------------------------------------------------------------------

GBWName                                   ... start.gbw
Number of atoms                           ...      4
Number of basis functions                 ...    176
Max core memory                           ...   2000 MB

Dipole integrals                          ... YES(DKH)
Quadrupole integrals                      ...  NO
Linear momentum integrals                 ...  NO
Angular momentum integrals                ...  NO
Higher moments length integrals           ...  NO
Higher moments velocity integrals         ...  NO
Kinetic energy integrals                  ...  NO
GIAO right hand sides                     ...  NO
GIAO dipole derivative integrals          ...  NO
SOC integrals                             ...  NO
EPR diamagnetic integrals (GIAO)          ...  NO
EPR gauge integrals                       ...  NO
Field gradient integrals                  ...  NO (   0 nuclei)
Spin-dipole/Fermi contact integrals       ...  NO (   0 nuclei)
Contact density integrals                 ...  NO (   0 nuclei)
Nucleus-orbit integrals                   ...  NO (   0 nuclei)
Geometric perturbations                   ...  NO (   4 nuclei)

DKH transformation order                  ... Second
Note: picture-change corrections are only included
      for the integrals annotated with "YES(DKH)"!

Choice of electric origin   ... Center of mass
Position of electric origin ... (  0.0000,  0.0000,  0.0000) 
Choice of magnetic origin   ... GIAO
Position of magnetic origin ... (  0.0000,  0.0000,  0.0000) 

Calculating integrals                     ... Electric Dipole (Length)     done (  0.1 sec)

Property integrals calculated in   0.1 sec

Maximum memory used throughout the entire PROPINT-calculation: 27.7 MB

-------------------------   --------------------
FINAL SINGLE POINT ENERGY     -8853.129122588271
-------------------------   --------------------



           ************************************************************
           *        Program running with 4 parallel MPI-processes     *
           *              working on a common directory               *
           ************************************************************

------------------------------------------------------------------------------
                              ORCA PROPERTY CALCULATIONS
------------------------------------------------------------------------------

GBWName                                 ... start.gbw
Number of atoms                         ...      4
Number of basis functions               ...    176
Max core memory                         ...   2000 MB

Electric properties:
Dipole moment                           ... YES(DKH)
Quadrupole moment                       ...  NO
Static polarizability (Dipole/Dipole)   ...  NO
Static polarizability (Dipole/Quad.)    ...  NO
Static polarizability (Quad./Quad.)     ...  NO
Static polarizability (Velocity)        ...  NO
Static hyperpolarizability              ...  NO

Atomic electric properties:
Dipole moment                           ...  NO
Quadrupole moment                       ...  NO
Static polarizability                   ...  NO

Choice of electric origin               ... Center of mass
Position of electric origin             ...     0.000000     0.000000     0.000000

General magnetic properties:
Magnetizability                         ...  NO

EPR properties:
g-Tensor (aka g-matrix)                 ...  NO
Zero-Field splitting spin-orbit         ...  NO
Zero-field splitting spin-spin          ...  NO
Hyperfine couplings                     ...  NO (   0 nuclei)
Quadrupole couplings                    ...  NO (   0 nuclei)
Contact density                         ...  NO (   0 nuclei)

NMR properties:
Chemical shifts                         ...  NO (   0 nuclei)
Spin-rotation constants                 ...  NO (   0 nuclei)
Spin-spin couplings                     ...  NO (   0 nuclei,    0 pairs)

Choice of magnetic origin               ... GIAO
Position of magnetic origin             ...     0.000000     0.000000     0.000000

Properties with geometric perturbations:
SCF Hessian                             ...  NO
IR spectrum                             ...  NO
VCD spectrum                            ...  NO
X-ray spectroscopy properties:
SCF XES/XAS/RIXS spectra                ...  NO

SCF SOC stabilization energy            ...  NO
Diagonal Born-Oppenheimer correction    ...  NO
DKH transformation order                ... Second
Note: picture-change corrections are only included
      for the properties annotated with "YES(DKH)"!


-------------
DIPOLE MOMENT
-------------

Method             : SCF
Type of density    : Electron Density
Multiplicity       :   1
Irrep              :   0
Energy             : -8853.1291225882705476 Eh
Basis              : AO
                                X                 Y                 Z
Electronic contribution:      0.000000000       0.000000000      -0.400458975
Nuclear contribution   :      0.000000000       0.000000000      12.234024840
                        -----------------------------------------
Total Dipole Moment    :      0.000000000       0.000000000      11.833565865
                        -----------------------------------------
Magnitude (a.u.)       :     11.833565865
[...]
           |   0.980525  -0.000000   0.000000 | X:   0.201867 |  -0.000000  -0.000000   1.000000 |
 279.00000 |  -0.000000   0.980525   0.000000 | Y:   0.980525 |   0.544499   0.838761   0.000000 |
           |   0.000000   0.000000   0.201867 | Z:   0.980525 |  -0.838761   0.544499   0.000000 |
-----------|------ x -------- y -------- z ---|---------------|------ x -------- y -------- z ---|
           |   0.980759  -0.000000   0.000000 | X:   0.202530 |  -0.000000  -0.000000   1.000000 |
 280.00000 |  -0.000000   0.980759   0.000000 | Y:   0.980759 |   0.544243   0.838928   0.000000 |
           |   0.000000   0.000000   0.202530 | Z:   0.980759 |  -0.838928   0.544243   0.000000 |
-----------|------ x -------- y -------- z ---|---------------|------ x -------- y -------- z ---|
           |   0.980990  -0.000000   0.000000 | X:   0.203193 |  -0.000000  -0.000000   1.000000 |
 281.00000 |  -0.000000   0.980990   0.000000 | Y:   0.980990 |   0.543987   0.839094   0.000000 |
           |   0.000000   0.000000   0.203193 | Z:   0.980990 |  -0.839094   0.543987   0.000000 |
-----------|------ x -------- y -------- z ---|---------------|------ x -------- y -------- z ---|
           |   0.981219  -0.000000   0.000000 | X:   0.203856 |  -0.000000  -0.000000   1.000000 |
 282.00000 |  -0.000000   0.981219   0.000000 | Y:   0.981219 |   0.543732   0.839259   0.000000 |
           |   0.000000   0.000000   0.203856 | Z:   0.981219 |  -0.839259   0.543732   0.000000 |
-----------|------ x -------- y -------- z ---|---------------|------ x -------- y -------- z ---|
           |   0.981444  -0.000000   0.000000 | X:   0.204518 |  -0.000000  -0.000000   1.000000 |
 283.00000 |  -0.000000   0.981444   0.000000 | Y:   0.981444 |   0.543478   0.839424   0.000000 |
           |   0.000000   0.000000   0.204518 | Z:   0.981444 |  -0.839424   0.543478   0.000000 |
-----------|------ x -------- y -------- z ---|---------------|------ x -------- y -------- z ---|
           |   0.981667  -0.000000   0.000000 | X:   0.205179 |  -0.000000  -0.000000   1.000000 |
 284.00000 |  -0.000000   0.981667   0.000000 | Y:   0.981667 |   0.543224   0.839588   0.000000 |
           |   0.000000   0.000000   0.205179 | Z:   0.981667 |  -0.839588   0.543224   0.000000 |
-----------|------ x -------- y -------- z ---|---------------|------ x -------- y -------- z ---|
           |   0.981887  -0.000000   0.000000 | X:   0.205841 |  -0.000000  -0.000000   1.000000 |
 285.00000 |  -0.000000   0.981887   0.000000 | Y:   0.981887 |   0.542971   0.839751   0.000000 |
           |   0.000000   0.000000   0.205841 | Z:   0.981887 |  -0.839751   0.542971   0.000000 |
-----------|------ x -------- y -------- z ---|---------------|------ x -------- y -------- z ---|
           |   0.982105  -0.000000   0.000000 | X:   0.206501 |  -0.000000  -0.000000   1.000000 |
 286.00000 |  -0.000000   0.982105   0.000000 | Y:   0.982105 |   0.542719   0.839914   0.000000 |
           |   0.000000   0.000000   0.206501 | Z:   0.982105 |  -0.839914   0.542719   0.000000 |
-----------|------ x -------- y -------- z ---|---------------|------ x -------- y -------- z ---|
           |   0.982320  -0.000000   0.000000 | X:   0.207162 |  -0.000000  -0.000000   1.000000 |
 287.00000 |  -0.000000   0.982320   0.000000 | Y:   0.982320 |   0.542468   0.840076   0.000000 |
           |   0.000000   0.000000   0.207162 | Z:   0.982320 |  -0.840076   0.542468   0.000000 |
-----------|------ x -------- y -------- z ---|---------------|------ x -------- y -------- z ---|
           |   0.982532  -0.000000   0.000000 | X:   0.207822 |  -0.000000  -0.000000   1.000000 |
 288.00000 |  -0.000000   0.982532   0.000000 | Y:   0.982532 |   0.542218   0.840238   0.000000 |
           |   0.000000   0.000000   0.207822 | Z:   0.982532 |  -0.840238   0.542218   0.000000 |
-----------|------ x -------- y -------- z ---|---------------|------ x -------- y -------- z ---|
           |   0.982742  -0.000000   0.000000 | X:   0.208481 |  -0.000000  -0.000000   1.000000 |
 289.00000 |  -0.000000   0.982742   0.000000 | Y:   0.982742 |   0.541968   0.840399   0.000000 |
           |   0.000000   0.000000   0.208481 | Z:   0.982742 |  -0.840399   0.541968   0.000000 |
-----------|------ x -------- y -------- z ---|---------------|------ x -------- y -------- z ---|
           |   0.982949  -0.000000   0.000000 | X:   0.209140 |  -0.000000  -0.000000   1.000000 |
 290.00000 |  -0.000000   0.982949   0.000000 | Y:   0.982949 |   0.541719   0.840560   0.000000 |
           |   0.000000   0.000000   0.209140 | Z:   0.982949 |  -0.840560   0.541719   0.000000 |
-----------|------ x -------- y -------- z ---|---------------|------ x -------- y -------- z ---|
           |   0.983154  -0.000000   0.000000 | X:   0.209799 |  -0.000000  -0.000000   1.000000 |
 291.00000 |  -0.000000   0.983154   0.000000 | Y:   0.983154 |   0.541470   0.840720   0.000000 |
           |   0.000000   0.000000   0.209799 | Z:   0.983154 |  -0.840720   0.541470   0.000000 |
-----------|------ x -------- y -------- z ---|---------------|------ x -------- y -------- z ---|
           |   0.983356  -0.000000   0.000000 | X:   0.210457 |  -0.000000  -0.000000   1.000000 |
 292.00000 |  -0.000000   0.983356   0.000000 | Y:   0.983356 |   0.541223   0.840879   0.000000 |
           |   0.000000   0.000000   0.210457 | Z:   0.983356 |  -0.840879   0.541223   0.000000 |
-----------|------ x -------- y -------- z ---|---------------|------ x -------- y -------- z ---|
           |   0.983556  -0.000000   0.000000 | X:   0.211114 |  -0.000000  -0.000000   1.000000 |
 293.00000 |  -0.000000   0.983556   0.000000 | Y:   0.983556 |   0.540976   0.841038   0.000000 |
           |   0.000000   0.000000   0.211114 | Z:   0.983556 |  -0.841038   0.540976   0.000000 |
-----------|------ x -------- y -------- z ---|---------------|------ x -------- y -------- z ---|
           |   0.983753  -0.000000   0.000000 | X:   0.211772 |  -0.000000  -0.000000   1.000000 |
 294.00000 |  -0.000000   0.983753   0.000000 | Y:   0.983753 |   0.540730   0.841197   0.000000 |
           |   0.000000   0.000000   0.211772 | Z:   0.983753 |  -0.841197   0.540730   0.000000 |
-----------|------ x -------- y -------- z ---|---------------|------ x -------- y -------- z ---|
           |   0.983948  -0.000000   0.000000 | X:   0.212428 |  -0.000000  -0.000000   1.000000 |
 295.00000 |  -0.000000   0.983948   0.000000 | Y:   0.983948 |   0.540484   0.841354   0.000000 |
           |   0.000000   0.000000   0.212428 | Z:   0.983948 |  -0.841354   0.540484   0.000000 |
-----------|------ x -------- y -------- z ---|---------------|------ x -------- y -------- z ---|
           |   0.984141  -0.000000   0.000000 | X:   0.213085 |  -0.000000  -0.000000   1.000000 |
 296.00000 |  -0.000000   0.984141   0.000000 | Y:   0.984141 |   0.540239   0.841511   0.000000 |
           |   0.000000   0.000000   0.213085 | Z:   0.984141 |  -0.841511   0.540239   0.000000 |
-----------|------ x -------- y -------- z ---|---------------|------ x -------- y -------- z ---|
           |   0.984331  -0.000000   0.000000 | X:   0.213741 |  -0.000000  -0.000000   1.000000 |
 297.00000 |  -0.000000   0.984331   0.000000 | Y:   0.984331 |   0.539995   0.841668   0.000000 |
           |   0.000000   0.000000   0.213741 | Z:   0.984331 |  -0.841668   0.539995   0.000000 |
-----------|------ x -------- y -------- z ---|---------------|------ x -------- y -------- z ---|
           |   0.984519  -0.000000   0.000000 | X:   0.214396 |  -0.000000  -0.000000   1.000000 |
 298.00000 |  -0.000000   0.984519   0.000000 | Y:   0.984519 |   0.539752   0.841824   0.000000 |
           |   0.000000   0.000000   0.214396 | Z:   0.984519 |  -0.841824   0.539752   0.000000 |
-----------|------ x -------- y -------- z ---|---------------|------ x -------- y -------- z ---|
           |   0.984704  -0.000000   0.000000 | X:   0.215051 |  -0.000000  -0.000000   1.000000 |
 299.00000 |  -0.000000   0.984704   0.000000 | Y:   0.984704 |   0.539510   0.841979   0.000000 |
           |   0.000000   0.000000   0.215051 | Z:   0.984704 |  -0.841979   0.539510   0.000000 |
-----------|------ x -------- y -------- z ---|---------------|------ x -------- y -------- z ---|
           |   0.984887  -0.000000   0.000000 | X:   0.215706 |  -0.000000  -0.000000   1.000000 |
 300.00000 |  -0.000000   0.984887   0.000000 | Y:   0.984887 |   0.539268   0.842134   0.000000 |
           |   0.000000   0.000000   0.215706 | Z:   0.984887 |  -0.842134   0.539268   0.000000 |
-------------------------------------------------------------------------------------------------|
Computation of the magnetization torque ... skipped by the user
Computation of the molar magnetization ... skipped by the user

-@-#-$-%-&-*--@-#-$-%-&-*--@-#-$-%-&-*--@-#-$-%-&-*--@-#-$-%-&-*--@-#-$-%-&-*--@-#-$-%-&-*--@-#-$-%-&-*--@-#-$-%-&-*--@-#-$-%-&-*-

          HAPPY   LANDING !!!   SINGLE_ANISO ENDED  OK !

-*-&-%-$-#-@--*-&-%-$-#-@--*-&-%-$-#-@--*-&-%-$-#-@--*-&-%-$-#-@--*-&-%-$-#-@--*-&-%-$-#-@--*-&-%-$-#-@--*-&-%-$-#-@--*-&-%-$-#-@-
 SINGLE_ANISO finished sucessfully!



-------------------------------------------------------------------------------
                              ORCA-AILFT
-------------------------------------------------------------------------------

[file orca_tools/SHARK/shark_setup_ri.cpp, line 82]: Error (SHARK/SelectAuxBasis): AuxC requested but not present


ORCA finished by error termination in AILFT
Calling Command: /home/dumitruc/Programs/orca610/orca_ailft cerium_job2 
  .... trying to continue anyways

--------------
CASSCF TIMINGS
--------------

Total time                       ...        1.1 sec
Sum of individual times          ...        1.1 sec ( 99.4%)

Calculation of AO operators
Calculation of MO transformed quantities
Configuration interaction steps
   CI-setup phase                ...        0.9 sec ( 81.2%)
Orbital improvement steps
Properties                       ...        0.2 sec ( 18.1%)
   SOC integral calculation      ...        0.0 sec (  0.0%)
   SSC RMEs (incl. integrals)    ...        0.0 sec (  0.0%)
   SOC RMEs                      ...        0.0 sec (  0.0%)

Maximum memory used throughout the entire CASSCF-calculation: 47.3 MB

-------------------------   --------------------
FINAL SINGLE POINT ENERGY     -8853.367026285268
-------------------------   --------------------



           ************************************************************
           *        Program running with 4 parallel MPI-processes     *
           *              working on a common directory               *
           ************************************************************

------------------------------------------------------------------------------
                              ORCA PROPERTY CALCULATIONS
------------------------------------------------------------------------------

GBWName                                 ... cerium_job2.gbw
Number of atoms                         ...      4
Number of basis functions               ...    176
Max core memory                         ...   2000 MB

Electric properties:
Dipole moment                           ... YES(DKH)
Quadrupole moment                       ...  NO
Static polarizability (Dipole/Dipole)   ...  NO
Static polarizability (Dipole/Quad.)    ...  NO
Static polarizability (Quad./Quad.)     ...  NO
Static polarizability (Velocity)        ...  NO
Static hyperpolarizability              ...  NO

Atomic electric properties:
Dipole moment                           ...  NO
Quadrupole moment                       ...  NO
Static polarizability                   ...  NO

Choice of electric origin               ... Center of mass
Position of electric origin             ...     0.000000     0.000000     0.000000

General magnetic properties:
Magnetizability                         ...  NO

EPR properties:
g-Tensor (aka g-matrix)                 ...  NO
Zero-Field splitting spin-orbit         ...  NO
Zero-field splitting spin-spin          ...  NO
Hyperfine couplings                     ...  NO (   0 nuclei)
Quadrupole couplings                    ...  NO (   0 nuclei)
Contact density                         ...  NO (   0 nuclei)

NMR properties:
Chemical shifts                         ...  NO (   0 nuclei)
Spin-rotation constants                 ...  NO (   0 nuclei)
Spin-spin couplings                     ...  NO (   0 nuclei,    0 pairs)

Choice of magnetic origin               ... Center of nuclear charge
Position of magnetic origin             ...     0.000000     0.000000     0.235270

Properties with geometric perturbations:
SCF Hessian                             ...  NO
IR spectrum                             ...  NO
VCD spectrum                            ...  NO
X-ray spectroscopy properties:
SCF XES/XAS/RIXS spectra                ...  NO

SCF SOC stabilization energy            ...  NO
Diagonal Born-Oppenheimer correction    ...  NO
DKH transformation order                ... Second
Note: picture-change corrections are only included
      for the properties annotated with "YES(DKH)"!


-------------
DIPOLE MOMENT
-------------

Method             : CASSCF/ALL STATES AVERAGE
Type of density    : Electron Density
Level              : Unrelaxed density
State              :  -1
Multiplicity       :  -1
Irrep              :   0
Energy             : -8853.3587049621619371 Eh
Basis              : AO
                                X                 Y                 Z
Electronic contribution:      0.000000000      -0.000000000      -0.514928325
Nuclear contribution   :      0.000000000       0.000000000      12.234024840
                        -----------------------------------------
Total Dipole Moment    :      0.000000000      -0.000000000      11.719096515
                        -----------------------------------------
Magnitude (a.u.)       :     11.719096515
Magnitude (Debye)      :     29.787576085



--------------------
Rotational spectrum 
--------------------
 
Rotational constants in cm-1:             0.000000             0.000000             0.000000 
Rotational constants in MHz :             0.000000             0.000000             0.000000 

Dipole components along the rotational axes: 
x,y,z [a.u.] :     0.000000    -0.000000    11.719097 
x,y,z [Debye]:     0.000000    -0.000000    29.787576 

 

Dipole moment calculation done in   0.0 sec 

Maximum memory used throughout the entire PROP-calculation: 19.3 MB

--------------------------------
SUGGESTED CITATIONS FOR THIS RUN
--------------------------------

Below you find a list of papers that are relevant to this ORCA run
We neither can nor want to force you to cite these papers, but we appreciate if you do
You receive ORCA, which is the product of decades of hard work by many enthusiastic individuals, for free
The only thing we kindly ask in return is that you cite our papers,
We deeply appreciate it, if you show your appreciation for ORCA by not just citing the generic ORCA reference.

Please note that relegating all ORCA citations to the supporting information does *not* help us.
SI sections are not indexed - citations you put there will not count into any citation statistics
But we need these citations in order to attract the funding resources that allow us to do what we are doing

Therefore, if you are a happy ORCA user, please consider citing a few of the papers listed below in the main body of your paper

In addition to the list printed below, the program has created the file cerium_job2.bibtex that contains the list in bibtex format
You can import this file easily into all common literature databanks and citation aid programs


List of essential papers. We consider these as the minimum necessary citations

  1. Neese, F.
     Software update: the ORCA program system, version 6.0
     WIRES Comput. Molec. Sci. 2025 15(1), e70019
     doi.org/10.1002/wcms.7019

List of papers to cite with high priority. The work reported in these papers was absolutely
necessary for this run to complete.
Our perspective: the developers of density functionals and basis sets usually get cited in chemistry papers
Good! But without the algorithms to do something with them, the functionals or basis sets would not do anything.
Hence, in our opinion, the algorithm design and method developments papers are equally worthy of getting cited

  1. Ganyushin, D.; Neese, F.
     First-principles calculations of zero-field splitting parameters
     J. Chem. Phys. 2006 125(2), Art. No. 024103
     doi.org/10.1063/1.2213976
  2. Atanasov, M.; Ganyushin, D.; Sivalingam, K.; Neese, F.
     A Modern First-Principles View on Ligand Field Theory Through the Eyes of Correlated Multireference Wavefunctions
     Struct. Bond. 2012 142 , 149-220
     doi.org/10.1007/430_2011_57
  3. Kollmar, C.; Sivalingam, K.; Helmich-Paris, B.; Angeli, C.; Neese, F.
     A perturbation-based super-CI approach for the orbital optimization of a CASSCF wave function
     J. Comput. Chem. 2019 40 , 1463-1470
     doi.org/10.1002/jcc.25801
  4. Lang, L.; Neese, F.
     Spin-dependent properties in the framework of the dynamic correlation dressed complete active space method
     J. Chem. Phys. 2019 150 , 
     doi.org/10.1063/1.5085203
  5. Neese, F.
     The SHARK Integral Generation and Digestion System
     J. Comp. Chem. 2022 44(3), 381
     doi.org/10.1002/jcc.26942
  6. Ugandi, M.; Roemelt, M.
     A recursive formulation of one-electron coupling coefficients for spin-adapted configuration interaction calculations featuring many unpaired electrons
     Int. J. Quantum Chem. 2023 123 , e27045
     doi.org/10.1002/qua.27045

List of suggested additional citations. These are papers that are important in the 'surrounding' of 
of this run, or papers that preceded the highly important papers. If you like your results we are grateful for a citation.

  1. Neese, F.
     The ORCA program system
     WIRES Comput. Molec. Sci. 2012 2(1), 73-78
     doi.org/10.1002/wcms.81
  2. Aravena, D.; Atanasov, M.; Neese, F.
     Periodic Trends in Lanthanide Compounds through the Eyes of Multireference ab Initio Theory
     Inorg. Chem. 2016 55(9), 4457-4469
     doi.org/10.1021/acs.inorgchem.6b00244
  3. Jung, J.L.; Atanasov, M.; Neese, F.
     Ab Initio Ligand-Field Theory Analysis and Covalency Trends in Actinide and Lanthanide Free Ions and Octahedral Complexes
     Inorg. Chem. 2016 56(15), 8802-8816
  4. Neese, F.
     Software update: the ORCA program system, version 4.0
     WIRES Comput. Molec. Sci. 2018 8(1), 1-6
     doi.org/10.1002/wcms.1327
  5. Neese, F.; Wennmohs, F.; Becker, U.; Riplinger, C.
     The ORCA quantum chemistry program package
     J. Chem. Phys. 2020 152(22), 224108
     doi.org/10.1063/5.0004608
  6. Neese, F.
     Software update: The ORCA program system—Version 5.0
     WIRES Comput. Molec. Sci. 2022 12(1), e1606
     doi.org/10.1002/wcms.1606

List of optional additional citations

  1. Neese, F.
     Approximate second-order SCF convergence for spin unrestricted wavefunctions
     Chem. Phys. Lett. 2000 325(1-3), 93-98
     doi.org/10.1016/s0009-2614(00)00662-x

Timings for individual modules:

Sum of individual times          ...       73.171 sec (=   1.220 min)
Startup calculation              ...        0.639 sec (=   0.011 min)   0.9 %
Relativistic integrals           ...        0.310 sec (=   0.005 min)   0.4 %
SCF iterations                   ...        0.175 sec (=   0.003 min)   0.2 %
CASSCF iterations                ...       55.530 sec (=   0.925 min)  75.9 %
Property integrals               ...       16.334 sec (=   0.272 min)  22.3 %
Property calculations            ...        0.183 sec (=   0.003 min)   0.3 %



                             ****ORCA TERMINATED NORMALLY****
TOTAL RUN TIME: 0 days 0 hours 1 minutes 39 seconds 289 msec
