SCRATCH DIRECTORY IS: /media/scratch/dumitruc/cerium.28987

                                 *****************
                                 * O   R   C   A *
                                 *****************

                                            #,                                       
                                            ###                                      
                                            ####                                     
                                            #####                                    
                                            ######                                   
                                           ########,                                 
                                     ,,################,,,,,                         
                               ,,#################################,,                 
                          ,,##########################################,,             
                       ,#########################################, ''#####,          
                    ,#############################################,,   '####,        
                  ,##################################################,,,,####,       
                ,###########''''           ''''###############################       
              ,#####''   ,,,,##########,,,,          '''####'''          '####       
            ,##' ,,,,###########################,,,                        '##       
           ' ,,###''''                  '''############,,,                           
         ,,##''                                '''############,,,,        ,,,,,,###''
      ,#''                                            '''#######################'''  
     '                                                          ''''####''''         
             ,#######,   #######,   ,#######,      ##                                
            ,#'     '#,  ##    ##  ,#'     '#,    #''#        ,####,    ,#,          
            ##       ##  ##   ,#'  ##            #'  '#       #'       ,# #          
            ##       ##  #######   ##           ,######,      #####,      #          
            '#,     ,#'  ##    ##  '#,     ,#' ,#      #,     #,   #      #          
             '#######'   ##     ##  '#######'  #'      '#     '####' #    #          



                #########################################################
                #                        -***-                          #
                #          Department of theory and spectroscopy        #
                #                                                       #
                #                      Frank Neese                      #
                #                                                       #
                #     Directorship, Architecture, Infrastructure        #
                #                    SHARK, DRIVERS                     #
                #        Core code/Algorithms in most modules           #
                #                                                       #
                #        Max Planck Institute fuer Kohlenforschung      #
                #                Kaiser Wilhelm Platz 1                 #
                #                 D-45470 Muelheim/Ruhr                 #
                #                      Germany                          #
                #                                                       #
                #                  All rights reserved                  #
                #                        -***-                          #
                #########################################################


                         Program Version 6.1.0  -  RELEASE   -
                                (GIT: $679e74b$)
                          ($2025-06-10 18:02:51 +0200$)


 With contributions from (in alphabetic order):
[Max-Planck-Institut fuer Kohlenforschung]                               
  Daniel Aravena         : Magnetic Suceptibility                        
  Michael Atanasov       : Ab Initio Ligand Field Theory (pilot matlab implementation)
  Alexander A. Auer      : GIAO ZORA, VPT2 properties, NMR spectrum      
  Ute Becker             : All parallelization in ORCA, NUMFREQ, NUMCALC 
  Giovanni Bistoni       : ED, misc. LED, open-shell LED, HFLD           
  Dmytro Bykov           : pre 5.0 version of the SCF Hessian            
  Marcos Casanova-Páez   : Triplet and SCS-CIS(D). UHF-(DLPNO)-IP/EA/STEOM-CCSD. UHF-CVS-IP/STEOM-CCSD   
  Vijay G. Chilkuri      : MRCI spin determinant printing, contributions to CSF-ICE 
  Pauline Colinet        : FMM embedding                                 
  Dipayan Datta          : RHF DLPNO-CCSD density                        
  Achintya Kumar Dutta   : EOM-CC, STEOM-CC                              
  Nicolas Foglia         : Exact transition moments, OPA infrastructure, MCD improvements    
  Dmitry Ganyushin       : Spin-Orbit,Spin-Spin,Magnetic field MRCI      
  Miquel Garcia-Rates    : C-PCM and meta-GGA Hessian, CCSD/C-PCM, Gaussian charge scheme 
  Tiago L. C. Gouveia    : GS-ROHF, GS-ROCIS                             
  Yang Guo               : DLPNO-NEVPT2, F12-NEVPT2, CIM, IAO-localization        
  Andreas Hansen         : Spin unrestricted coupled pair/coupled cluster methods 
  Ingolf Harden          : AUTO-CI MPn and infrastructure                
  Benjamin Helmich-Paris : MC-RPA, TRAH-(SCF,CASSCF), AVAS, COSX integrals, SCF dyn. polar., MC-PDFT, srDFT 
  Lee Huntington         : MR-EOM, pCC                                   
  Robert Izsak           : Overlap fitted RIJCOSX, COSX-SCS-MP3, EOM     
  Riya Kayal             : Wick's Theorem for AUTO-CI, AUTO-CI UHF-CCSDT 
  Emily Kempfer          : AUTO-CI RHF CISDT and CCSDT, approximate NEVPT4
  Christian Kollmar      : KDIIS, OOCD, Brueckner-CCSD(T), CCSD density, CASPT2, CASPT2-K, improved NEVPT2 
  Axel Koslowski         : Symmetry handling                             
  Simone Kossmann        : meta-GGA functionals, TD-DFT gradient, OOMP2, (MP2 Hessian; deprecated post 5.0) 
  Lucas Lang             : DCDCAS, Hyperfine gauge corrections, ICE-SOC+SSC
  Marvin Lechner         : AUTO-CI (C++ implementation), FIC-MRCC        
  Spencer Leger          : CASSCF response                               
  Dagmar Lenk            : GEPOL surface, SMD, ORCA-2-JSON               
  Dimitrios Liakos       : Extrapolation schemes; Compound Job, Property file
  Dimitrios Manganas     : Further ROCIS development; embedding schemes. LFT, Crystal Embedding 
  Dimitrios Pantazis     : SARC Basis sets                               
  Anastasios Papadopoulos: AUTO-CI, single reference methods and gradients 
  Taras Petrenko         : pre 6.0 DFT Hessian and TD-DFT gradient,  ECA, NRVS 
  Petra Pikulova         : Analytic Raman intensities                    
  Peter Pinski           : DLPNO-MP2, DLPNO-MP2 Gradient                 
  Shashank Vittal Rao    : ES-AILFT, MagRelax                            
  Christoph Reimann      : Effective Core Potentials                     
  Marius Retegan         : Local ZFS, SOC                                
  Christoph Riplinger    : Optimizer, TS searches, QM/MM, DLPNO-CCSD(T), (RO)-DLPNO pert. Triples 
  Michael Roemelt        : Original ROCIS implementation, recursive CI coupling coefficients
  Masaaki Saitow         : Open-shell DLPNO-CCSD energy and density      
  Barbara Sandhoefer     : DKH picture change effects                    
  Yorick L. A. Schmerwitz: GMF and freeze-and-release deltaSCF, NEB S-IDPP initial path                    
  Kantharuban Sivalingam : CASSCF convergence/infrastructure, NEVPT2, NEVPT3, NEVPT4(SD), FIC-MRCI and CEPA variants
  Bernardo de Souza      : ESD, SOC TD-DFT                               
  Georgi L. Stoychev     : AutoAux, RI-MP2 NMR, DLPNO-MP2 response, X2C  
  Van Anh Tran           : RI-MP2 g-tensors                              
  Willem Van den Heuvel  : Paramagnetic NMR                              
  Zikuan Wang            : NOTCH, Electric field optimization            
  Frank Wennmohs         : Technical directorship and infrastructure     
  Hang Xu                : AUTO-CI-Response properties                   
                                                                         
[FACCTs GmbH]                                                            
  Markus Bursch, Nicolas Foglia, Miquel Garcia-Rates, Ingolf Harden, Hagen Neugebauer, Anastasios Papadopoulos, 
  Christoph Riplinger, Bernardo de Souza, Georgi L. Stoychev                                                    
                                                                 
  APM, various basis sets, CI-OPT, improved COSX, DLPNO-Multilevel,           
  DOCKER, DRACO, updates on ESD, Fragmentator, GOAT, IRC, LR-CPCM, L-BFGS, MBIS, meta-GGA TD-DFT gradient, ML-optimized integration grids, 
  MM, NACMEs, nearIR, NEB, NEB-TS, NL-DFT gradient (VV10), 2- and 3-layer-ONIOM, interface openCOSMO-RS, QMMM,   
  Crystal-QMMM, RESP, rigid body optimization, SF, symmetry and pop. for TD-DFT, various functionals, SOLVATOR                                   
                                                                         
[Other institutions]                                                     
  V. Asgeirsson          : NEB                                           
  Christoph Bannwarth    : sTDA-DFT, sTD-DFT, PBEh-3c, B97-3c, D3        
  Giovanni Bistoni       : ETS/NOCV, ADLD/ADEX, COVALED                  
  Martin Brehm           : Molecular dynamics                            
  Ronald Cardenas        : ETS/NOCV                                      
  Martina Colucci        : COVALED                                       
  Sebastian Ehlert       : rSCAN, r2SCAN, r2SCAN-3c, D4, dhf basis sets  
  Marvin Friede          : D4 for Fr, Ra, Ac-Lr                          
  Lars Goerigk           : TD-DFT with DH, B97 family of functionals     
  Stefan Grimme          : VdW corrections, initial TS optimization, DFT functionals, gCP, sTDA/sTD-DF 
  Waldemar Hujo          : DFT-NL                                        
  H. Jonsson             : NEB                                           
  Holger Kruse           : gCP                                           
  Marcel Mueller         : wB97X-3c, vDZP basis set                      
  Hagen Neugebauer       : wr2SCAN, Native XTB                           
  Gianluca Regni         : ADLD/ADEX                                     
  Tobias Risthaus        : pre 6.0 range-separated hybrid DFT and stability analysis
  Lukas Wittmann         : regularized MP2, r2SCAN double-hybrids, wr2SCAN        
                                                                         
We gratefully acknowledge several colleagues who have allowed us to      
interface, adapt or use parts of their codes:                            
  Ed Valeev, F. Pavosevic, A. Kumar             : LibInt (2-el integral package), F12 methods 
  Garnet Chan, S. Sharma, J. Yang, R. Olivares  : DMRG                   
  Ulf Ekstrom                                   : XCFun DFT Library      
  Mihaly Kallay                                 : mrcc  (arbitrary order and MRCC methods)
  Frank Weinhold                                : gennbo (NPA and NBO analysis)           
  Simon Mueller                                 : openCOSMO-RS                            
  Christopher J. Cramer and Donald G. Truhlar   : smd solvation model                     
  S Lehtola, MJT Oliveira, MAL Marques          : LibXC Library                           
  Liviu Ungur et al                             : ANISO software                          


 Your calculation uses the libint2 library for the computation of 2-el integrals
 For citations please refer to: http://libint.valeyev.net

 Your ORCA version has been built with support for libXC version: 7.0.0
 For citations please refer to: https://libxc.gitlab.io

 This ORCA versions uses:
   CBLAS   interface :  Fast vector & matrix operations
   LAPACKE interface :  Fast linear algebra routines
   SCALAPACK package :  Parallel linear algebra routines
   Shared memory     :  Shared parallel matrices
   BLAS/LAPACK       :  OpenBLAS 0.3.29  USE64BITINT DYNAMIC_ARCH NO_AFFINITY Haswell SINGLE_THREADED
        Core in use  :  Haswell
   Copyright (c) 2011-2014, The OpenBLAS Project


  ***********************************
  * Starting time: Thu Oct 16 09:29:40 2025
  * Host name:     bohr
  * Process ID:    855318
  * Working dir.:  /media/scratch/dumitruc/cerium.28987
  ***********************************

NOTE: MaxCore=2000 MB was set to SCF,MP2,MDCI,CIPSI,MRCI,RASCI and CIS
      => If you want to overwrite this, your respective input block should be placed after the MaxCore statement
================================================================================

----- Orbital basis set information -----
Your calculation utilizes the basis: SARC2-DKH-QZVP
   D. Aravena, F. Neese and D. A. Pantazis, J. Chem. Theory Comput. 12, 1148 (2016).

================================================================================
                                        WARNINGS
                       Please study these warnings very carefully!
================================================================================


WARNING: The basis set has functions with high angular momentum (Lmax>4).
         We might need to increase small grids for safety reasons and
         in general, DEFGRID3 is recommend for such cases.
  ===> : GRIDX1, TD-DFT and the CP-SCF AngGrids will be increased to at least 2


WARNING: Relativistic property calculations require picture change transformations!
  ===> : Setting %rel PictureChange = 2

NOTE: MaxCore=2000 MB was set to SCF,MP2,MDCI,CIPSI,MRCI,RASCI and CIS
      => If you want to overwrite this, your respective input block should be placed after the MaxCore statement
================================================================================

----- Orbital basis set information -----
Your calculation utilizes the basis: SARC2-DKH-QZVP
   D. Aravena, F. Neese and D. A. Pantazis, J. Chem. Theory Comput. 12, 1148 (2016).

================================================================================
                                        WARNINGS
                       Please study these warnings very carefully!
================================================================================


WARNING: The basis set has functions with high angular momentum (Lmax>4).
         We might need to increase small grids for safety reasons and
         in general, DEFGRID3 is recommend for such cases.
  ===> : GRIDX1, TD-DFT and the CP-SCF AngGrids will be increased to at least 2


CAS(DoSusceptibility), calculation requested: setting Magnetic origin to Nuclear Charge center
WARNING: In AILFT F2ff/F4ff remain undefined when considering only the HS Multiplicity block
         Be Careful with the results!
TIP:     If possible use in addition a LS Multiplicity Block

================================================================================
                                       INPUT FILE
================================================================================
NAME = cerium.inp
|  1> ! dkh
|  2> ! sarc2-dkh-qzvp
|  3> ! tightscf
|  4> ! nori
|  5> ! KDIIS SOSCF NOTRAH
|  6> ! pal4
|  7> %base "start"
|  8> 
|  9> # %output
| 10> #   Print[ P_ReducedOrbPopMO_M] 1
| 11> # end
| 12> 
| 13> %maxcore 2000
| 14> 
| 15> *xyz 4 1
| 16> Ce    0.000000000000      0.000000000000      0.000000000000
| 17> Q -2  0.000000000000      0.000000000000      3.000000000000
| 18> Q -2  0.000000000000      0.000000000000     -3.000000000000
| 19> *
| 20> 
| 21> $new_job
| 22> 
| 23> ! largeprint
| 24> ! dkh
| 25> ! sarc2-dkh-qzvp
| 26> ! tightscf 
| 27> ! nori
| 28> ! pal4
| 29> ! moread
| 30> %moinp "start.gbw"
| 31> 
| 32> %maxcore 2000
| 33> 
| 34> %rel
| 35>   method DKH 
| 36>   picturechange 2
| 37> end
| 38> 
| 39> # %output
| 40> #   Print[ P_ReducedOrbPopMO_M] 1
| 41> # end
| 42> 
| 43> %casscf
| 44>   nel     1
| 45>   norb    7
| 46>   mult    2
| 47>   nroots  7
| 48>   maxiter 120
| 49>   printwf det
| 50>   actorbs forbs
| 51>   ci
| 52>    TPrintWF   0
| 53>   end
| 54>   rel
| 55>     dosoc true
| 56>     tprint 0.0
| 57>     dosusceptibility true
| 58>     SUSTempMIN 1.0
| 59>     SUSTempMAX 300
| 60>   end
| 61>   aniso
| 62>     doaniso true
| 63>     quax 4
| 64>     mltp 2, 2, 2, 2, 2, 2, 2
| 65>     CRYS_element "Ce"
| 66>     CRYS_charge 3
| 67>     TINT 0, 300, 301
| 68>   end
| 69> end
| 70> 
| 71> *xyz 3 2
| 72> Ce    0.000000000000      0.000000000000      0.000000000000
| 73> Q -2  0.000000000000      0.000000000000      3.000000000000
| 74> Q -2  0.000000000000      0.000000000000     -3.000000000000
| 75> *
| 76> 
| 77> 
| 78>                          ****END OF INPUT****
================================================================================


                 $$$$$$$$$$$$$$$$$$$$$$$$$$$$$$$$$$$$$$$$$$$$$$ 
                 $ THERE ARE  2 JOBS TO BE PROCESSED THIS RUN $
                 $$$$$$$$$$$$$$$$$$$$$$$$$$$$$$$$$$$$$$$$$$$$$$ 




                 $$$$$$$$$$$$$$$$  JOB NUMBER  1 $$$$$$$$$$$$$$


                       ****************************
                       * Single Point Calculation *
                       ****************************

---------------------------------
CARTESIAN COORDINATES (ANGSTROEM)
---------------------------------
  Ce     0.000000    0.000000    0.000000
  Q      0.000000    0.000000    3.000000
  Q      0.000000    0.000000   -3.000000

----------------------------
CARTESIAN COORDINATES (A.U.)
----------------------------
  NO LB      ZA    FRAG     MASS         X           Y           Z
   0 Ce   58.0000    0   140.120    0.000000    0.000000    0.000000
   1 Q    -2.0000    0     0.000    0.000000    0.000000    5.669178
   2 Q    -2.0000    0     0.000    0.000000    0.000000   -5.669178

--------------------------------
INTERNAL COORDINATES (ANGSTROEM)
--------------------------------
 Ce     0   0   0     0.000000000000     0.00000000     0.00000000
 Q      1   0   0     3.000000000000     0.00000000     0.00000000
 Q      1   2   0     3.000000000000   180.00000000     0.00000000

---------------------------
INTERNAL COORDINATES (A.U.)
---------------------------
 Ce     0   0   0     0.000000000000     0.00000000     0.00000000
 Q      1   0   0     5.669178401764     0.00000000     0.00000000
 Q      1   2   0     5.669178401764   180.00000000     0.00000000

---------------------
BASIS SET INFORMATION
---------------------
There are 2 groups of distinct atoms

 Group   1 Type Ce  : 23s16p12d7f3g2h contracted to 18s12p9d4f3g2h pattern {611111111111111111/511111111111/411111111/4111/111/11}
 Group   2 Type Q,> :  contracted to  pattern {}

Atom   0Ce   basis set group =>   1
Atom   1Q    basis set group =>   2
Atom   2Q    basis set group =>   2


           ************************************************************
           *        Program running with 4 parallel MPI-processes     *
           *              working on a common directory               *
           ************************************************************
------------------------------------------------------------------------------
                             ORCA STARTUP CALCULATIONS
------------------------------------------------------------------------------
------------------------------------------------------------------------------
                   ___                                                        
                  /   \      - P O W E R E D   B Y -                         
                 /     \                                                     
                 |  |  |   _    _      __       _____    __    __             
                 |  |  |  | |  | |    /  \     |  _  \  |  |  /  |          
                  \  \/   | |  | |   /    \    | | | |  |  | /  /          
                 / \  \   | |__| |  /  /\  \   | |_| |  |  |/  /          
                |  |  |   |  __  | /  /__\  \  |    /   |      \           
                |  |  |   | |  | | |   __   |  |    \   |  |\   \          
                \     /   | |  | | |  |  |  |  | |\  \  |  | \   \       
                 \___/    |_|  |_| |__|  |__|  |_| \__\ |__|  \__/        
                                                                              
                      - O R C A' S   B I G   F R I E N D -                    
                                      &                                       
                       - I N T E G R A L  F E E D E R -                       
                                                                              
 v1 FN, 2020, v2 2021, v3 2022-2024                                           
------------------------------------------------------------------------------


----------------------
SHARK INTEGRAL PACKAGE
----------------------

Number of atoms                             ...      3
Number of basis functions                   ...    176
Number of shells                            ...     48
Maximum angular momentum                    ...      5
Integral batch strategy                     ... SHARK/LIBINT Hybrid
RI-J (if used) integral strategy            ... SPLIT-RIJ (Revised 2003 algorithm where possible)
Printlevel                                  ...      1
Contraction scheme used                     ... SEGMENTED contraction
Prescreening option                         ... SCHWARTZ
   Thresh                                   ... 2.500e-11
   Tcut                                     ... 2.500e-12
   Tpresel                                  ... 2.500e-12 
Coulomb Range Separation                    ... NOT USED
Exchange Range Separation                   ... NOT USED
Multipole approximations                    ... NOT USED
Finite Nucleus Model                        ... NOT USED
CABS basis                                  ... NOT available
Auxiliary Coulomb fitting basis             ... NOT available
Auxiliary J/K fitting basis                 ... NOT available
Auxiliary Correlation fitting basis         ... NOT available
Auxiliary 'external' fitting basis          ... NOT available

Checking pre-screening integrals            ... done (  0.0 sec) Dimension = 48
   => SHARK Basis and OBASIS are compatible. Storing Pre-screening
Shell pair information
Shell pair cut-off parameter TPreSel        ...   2.5e-12
Total number of shell pairs                 ...      1176
Shell pairs after pre-screening             ...      1174
Total number of primitive shell pairs       ...      2053
Primitive shell pairs kept                  ...      2041
          la=0 lb=0:    171 shell pairs
          la=1 lb=0:    216 shell pairs
          la=1 lb=1:     78 shell pairs
          la=2 lb=0:    162 shell pairs
          la=2 lb=1:    108 shell pairs
          la=2 lb=2:     45 shell pairs
          la=3 lb=0:     72 shell pairs
          la=3 lb=1:     48 shell pairs
          la=3 lb=2:     36 shell pairs
          la=3 lb=3:     10 shell pairs
          la=4 lb=0:     53 shell pairs
          la=4 lb=1:     36 shell pairs
          la=4 lb=2:     27 shell pairs
          la=4 lb=3:     12 shell pairs
          la=4 lb=4:      6 shell pairs
          la=5 lb=0:     35 shell pairs
          la=5 lb=1:     24 shell pairs
          la=5 lb=2:     18 shell pairs
          la=5 lb=3:      8 shell pairs
          la=5 lb=4:      6 shell pairs
          la=5 lb=5:      3 shell pairs

Checking whether 4 symmetric matrices of dimension 176 fit in memory
:Max Core in MB      =   2000.00
 MB in use           =      7.25
 MB left             =   1992.75
 MB needed           =      0.48
 Data fit in memory  = YES
Calculating Nuclear repulsion               ... done (  0.0 sec) ENN=    -40.570252636333 Eh

Diagonalization of the overlap matrix:
Smallest eigenvalue                        ... 1.265e-03
Time for diagonalization                   ...    0.001 sec
Threshold for overlap eigenvalues          ... 1.000e-07
Number of eigenvalues below threshold      ... 0
Time for construction of square roots      ...    0.001 sec
Total time needed                          ...    0.002 sec

-------------------
DFT GRID GENERATION
-------------------

General Integration Accuracy     IntAcc      ... 4.388
Radial Grid Type                 RadialGrid  ... OptM3 with GC (2021)
Angular Grid (max. ang.)         AngularGrid ... 4 (Lebedev-302)
Angular grid pruning method      GridPruning ... 4 (adaptive)
Weight generation scheme         WeightScheme... mBecke (2022)
Basis function cutoff            BFCut       ... 1.0000e-11
Integration weight cutoff        WCut        ... 1.0000e-14
Partially contracted basis set               ... off
Rotationally invariant grid construction     ... off
Angular grids for H and He will be reduced by one unit
Core-polarized basis detected: some atoms will have their core
                               angular grid increased.
Steep s-basis detected: some atoms will have their radial
                        grid points doubled.

Total number of grid points                  ...    29240
Total number of batches                      ...      459
Average number of points per batch           ...       63
Average number of grid points per atom       ...     9747
Grids setup in   0.2 sec
Initializing property integral containers    ... done (  0.0 sec)

SHARK setup successfully completed in   0.3 seconds

Maximum memory used throughout the entire STARTUP-calculation: 38.2 MB


           ************************************************************
           *        Program running with 4 parallel MPI-processes     *
           *              working on a common directory               *
           ************************************************************
------------------------------------------------------------------------------
                          ORCA RELATIVISTIC HAMILTONIAN
------------------------------------------------------------------------------

Relativistic Method            ... DKH
Order of DKH treatment         ...   2
Treatment of potential         ... V(e,N)
Eps parameter for DKH          ...   0.00000000010000
Nucleus model                  ... Point Nucleus
Speed of light used            ... 137.03598950000000


            ************************************************
            *        DOUGLAS-KROLL-HESS HAMILTONIAN        *
            *   Programmed by FN according to literature   *
            *        procedures. Special thanks to         *
            *       B.A. Hess, M. Reiher and A. Wolf       *
            *     University Erlangen-Nuernberg/Bonn       *
            ************************************************

Uncontracting the basis (first version)        ... done
Number of contracted basis functions           ...  176
Number of uncontracted basis functions         ...  229
Initializing the DKH file                      ... done
Calculating the relativistic integrals         ... done
Storing DKH matrices                           ... done
Computing the DKH transformation               ... done
Storing the transformation variables           ... done
Transforming V and pVp to p**2 space           ... done
First transformation of V and pVp              ... done
Second transformation of Veff                  ... done
Adding kinetic energy                          ... done
Back transformation of Veff to r-space         ... done
Recovering DKH matrices                        ... done
Recontracting the H-matrix (first version)     ... done
Computing the DKH correction to the H-matrix   ... done
Reading the original H-matrix                  ... done
Adding DKH correction to the H-matrix          ... done
Storing the new modified H-matrix              ... done

Maximum memory used throughout the entire REL-calculation: 41.5 MB


           ************************************************************
           *        Program running with 4 parallel MPI-processes     *
           *              working on a common directory               *
           ************************************************************
-------------------------------------------------------------------------------
                                 ORCA GUESS
                   Start orbitals & Density for SCF / CASSCF
-------------------------------------------------------------------------------

------------
SCF SETTINGS
------------
Hamiltonian:
 Ab initio Hamiltonian  Method          .... Hartree-Fock(GTOs)

Relativistic Settings:
 Scalar relativistic method             .... Douglas-Kroll-Hess
 Order of DKH procedure    Order        ....    2
 Mode of DKH-treatment                  .... V=V(e,N)
 Speed of light used       Velit        ....       137.035989
 Cutoff-constant           Eps          ....            1e-10 


General Settings:
 Integral files         IntName         .... start
 Hartree-Fock type      HFTyp           .... RHF
 Total Charge           Charge          ....    4
 Multiplicity           Mult            ....    1
 Number of Electrons    NEL             ....   54
 Basis Dimension        Dim             ....  176
 Nuclear Repulsion      ENuc            ....    -40.5702526363 Eh

Convergence Acceleration:
 AO-DIIS                CNVDIIS         .... off
 MO-DIIS                CNVKDIIS        .... on
   # of expansion vecs  DIISMaxEq       ....     5
   Initial Damping      KDIISInitialDamp....     1
   Tranformation alg.   KDIISTransform  ....     1
 Trust-Rad. Augm. Hess. CNVTRAH         .... off
 SOSCF                 CNVSOSCF           .... on
   Start iteration     SOSCFMaxIt         ....   150
   Startup grad/error  SOSCFStart         ....  0.003300
   Hessian update      SOSCFHessUp        .... L-BFGS
   Autom. constraints  SOSCFAutoConstrain .... off
 Level Shifting         CNVShift        .... off
 Zerner damping         CNVZerner       .... off
 Static damping         CNVDamp         .... off

SCF Procedure:
 Maximum # iterations   MaxIter         ....   125
 SCF integral mode      SCFMode         .... Direct
   Integral package                     .... SHARK and LIBINT hybrid scheme
 Reset frequency        DirectResetFreq ....    20
 Integral Threshold     Thresh          ....  2.500e-11 Eh
 Primitive CutOff       TCut            ....  2.500e-12 Eh

Convergence Tolerance:
 Convergence Check Mode ConvCheckMode   .... Total+1el-Energy
 Convergence forced     ConvForced      .... 0
 Energy Change          TolE            ....  1.000e-08 Eh
 1-El. energy change                    ....  1.000e-05 Eh
 Orbital Gradient       TolG            ....  1.000e-05
 Orbital Rotation angle TolX            ....  1.000e-05

------------------------------
INITIAL GUESS: MODEL POTENTIAL
------------------------------
Loading DKH relativistic densities                 ... done
Calculating cut-offs                               ... done
Initializing the effective Hamiltonian             ... done
Setting up the integral package (SHARK)            ... done
Starting the Coulomb interaction                   ... done (   0.0 sec)
Making the grid                                    ... done (   0.1 sec)
Mapping shells                                     ... done
Starting the XC term evaluation                    ... done (   0.0 sec)
Transforming the Hamiltonian                       ... done (   0.0 sec)
Diagonalizing the Hamiltonian                      ... done (   0.0 sec)
Back transforming the eigenvectors                 ... done (   0.0 sec)
Now organizing SCF variables                       ... done
                      ------------------
                      INITIAL GUESS DONE (   0.1 sec)
                      ------------------
             **** ENERGY FILE WAS UPDATED (start.en.tmp) ****
Finished Guess after   0.1 sec
Maximum memory used throughout the entire GUESS-calculation: 18.6 MB


           ************************************************************
           *        Program running with 4 parallel MPI-processes     *
           *              working on a common directory               *
           ************************************************************

-------------------------------------------------------------------------------------------
                                      ORCA LEAN-SCF
                              memory conserving SCF solver
-------------------------------------------------------------------------------------------

----------------------------------------D-I-I-S--------------------------------------------
Iteration    Energy (Eh)           Delta-E    RMSDP     MaxDP     MaxGrad   Damp  Time(sec)
-------------------------------------------------------------------------------------------
               ***  Starting incremental Fock matrix formation  ***
                          ****Turning on DIIS(Cayley)****
    1    -8852.2354419687599147     0.00e+00  3.09e-03  7.84e-02  1.62e+00  0.900   1.0
    2    -8852.3235444217225449    -8.81e-02  5.02e-03  1.32e-01  1.46e+00  0.800   1.0
    3    -8852.4400131792917819    -1.16e-01  8.54e-03  2.24e-01  1.17e+00  0.600   1.0
    4    -8852.5832760495759430    -1.43e-01  1.35e-02  3.64e-01  7.01e-01  0.000   1.0
                              *** Initializing SOSCF ***
---------------------------------------S-O-S-C-F--------------------------------------
Iteration    Energy (Eh)           Delta-E    RMSDP     MaxDP     MaxGrad    Time(sec)
--------------------------------------------------------------------------------------
    5    -8852.6641313205855113    -8.09e-02  1.15e-04  2.32e-03  3.28e-03     1.0
               *** Restarting incremental Fock matrix formation ***
    6    -8852.6641657718082570    -3.45e-05  2.05e-04  4.31e-03  2.12e-03     1.0
    7    -8852.6641973859204882    -3.16e-05  5.58e-05  9.66e-04  9.06e-04     1.0
    8    -8852.6642004836139677    -3.10e-06  2.09e-05  4.81e-04  2.42e-04     0.9
    9    -8852.6642008690341754    -3.85e-07  7.03e-06  1.07e-04  5.46e-05     0.9
   10    -8852.6642009054958180    -3.65e-08  1.21e-06  3.04e-05  9.60e-06     0.9
   11    -8852.6642009061051795    -6.09e-10  4.15e-07  7.95e-06  4.03e-06     0.8
                 **** Energy Check signals convergence ****

               *****************************************************
               *                     SUCCESS                       *
               *           SCF CONVERGED AFTER  11 CYCLES          *
               *****************************************************

             **** ENERGY FILE WAS UPDATED (start.en.tmp) ****

----------------
TOTAL SCF ENERGY
----------------

Total Energy       :      -8852.66420090645988 Eh         -240893.23968 eV

Components:
Nuclear Repulsion  :        -40.57025263633334 Eh           -1103.97270 eV
Electronic Energy  :      -8812.09394827012693 Eh         -239789.26698 eV
One Electron Energy:     -11942.99834187772103 Eh         -324985.50683 eV
Two Electron Energy:       3130.90439360759410 Eh           85196.23984 eV

Virial components:
Potential Energy   :     -19584.69340302498676 Eh         -532926.60096 eV
Kinetic Energy     :      10732.02920211852688 Eh          292033.36128 eV
Virial Ratio       :          1.82488260460183

---------------
SCF CONVERGENCE
---------------

  Last Energy change         ...    6.0936e-10  Tolerance :   1.0000e-08
  Last MAX-Density change    ...    7.9490e-06  Tolerance :   1.0000e-07
  Last RMS-Density change    ...    4.1476e-07  Tolerance :   5.0000e-09
  Last Orbital Gradient      ...    4.0344e-06  Tolerance :   1.0000e-05
  Last Orbital Rotation      ...    5.7323e-06  Tolerance :   1.0000e-05


----------------
ORBITAL ENERGIES
----------------

  NO   OCC          E(Eh)            E(eV) 
   0   2.0000   -1493.091239    -40629.0782 
   1   2.0000    -244.004894     -6639.7107 
   2   2.0000    -218.705791     -5951.2871 
   3   2.0000    -218.705758     -5951.2862 
   4   2.0000    -218.705758     -5951.2862 
   5   2.0000     -55.056056     -1498.1514 
   6   2.0000     -46.779393     -1272.9320 
   7   2.0000     -46.779393     -1272.9320 
   8   2.0000     -46.778180     -1272.8990 
   9   2.0000     -34.885282      -949.2768 
  10   2.0000     -34.885282      -949.2768 
  11   2.0000     -34.884462      -949.2545 
  12   2.0000     -34.884462      -949.2545 
  13   2.0000     -34.884154      -949.2461 
  14   2.0000     -12.622144      -343.4660 
  15   2.0000      -9.792711      -266.4732 
  16   2.0000      -9.792711      -266.4732 
  17   2.0000      -9.790295      -266.4075 
  18   2.0000      -5.560414      -151.3065 
  19   2.0000      -5.560414      -151.3065 
  20   2.0000      -5.557876      -151.2375 
  21   2.0000      -5.557876      -151.2375 
  22   2.0000      -5.556922      -151.2115 
  23   2.0000      -2.586192       -70.3739 
  24   2.0000      -1.739931       -47.3459 
  25   2.0000      -1.739931       -47.3459 
  26   2.0000      -1.707261       -46.4569 
  27   0.0000      -0.491280       -13.3684 
  28   0.0000      -0.491280       -13.3684 
  29   0.0000      -0.484740       -13.1904 
  30   0.0000      -0.484740       -13.1904 
  31   0.0000      -0.479531       -13.0487 
  32   0.0000      -0.479531       -13.0487 
  33   0.0000      -0.477291       -12.9878 
  34   0.0000      -0.402563       -10.9543 
  35   0.0000      -0.402563       -10.9543 
  36   0.0000      -0.358802        -9.7635 
  37   0.0000      -0.358802        -9.7635 
*Only the first 10 virtual orbitals were printed.

                    ********************************
                    * MULLIKEN POPULATION ANALYSIS *
                    ********************************

-----------------------
MULLIKEN ATOMIC CHARGES
-----------------------
   0 Ce:    4.000000
   1 Q :   -2.000000
   2 Q :   -2.000000
Sum of atomic charges:    0.0000000

--------------------------------
MULLIKEN REDUCED ORBITAL CHARGES
--------------------------------
  0 Ces       :     9.999615  s :     9.999615
      pz      :     7.998738  p :    23.997754
      px      :     7.999508
      py      :     7.999508
      dz2     :     4.000384  d :    20.000383
      dxz     :     4.000000
      dyz     :     4.000000
      dx2y2   :     4.000000
      dxy     :     4.000000
      f0      :     0.001262  f :     0.002246
      f+1     :     0.000492
      f-1     :     0.000492
      f+2     :     0.000000
      f-2     :     0.000000
      f+3     :     0.000000
      f-3     :     0.000000
      g0      :     0.000001  g :     0.000002
      g+1     :     0.000000
      g-1     :     0.000000
      g+2     :     0.000000
      g-2     :     0.000000
      g+3     :     0.000000
      g-3     :     0.000000
      g+4     :     0.000000
      g-4     :     0.000000
      h0      :     0.000000  h :     0.000000
      h+1     :     0.000000
      h-1     :     0.000000
      h+2     :     0.000000
      h-2     :     0.000000
      h+3     :     0.000000
      h-3     :     0.000000
      h+4     :     0.000000
      h-4     :     0.000000
      h+5     :     0.000000
      h-5     :     0.000000

  1 Q 

  2 Q 



                     *******************************
                     * LOEWDIN POPULATION ANALYSIS *
                     *******************************

----------------------
LOEWDIN ATOMIC CHARGES
----------------------
   0 Ce:    4.000000
   1 Q :   -2.000000
   2 Q :   -2.000000

-------------------------------
LOEWDIN REDUCED ORBITAL CHARGES
-------------------------------
  0 Ces       :     9.999615  s :     9.999615
      pz      :     7.998738  p :    23.997754
      px      :     7.999508
      py      :     7.999508
      dz2     :     4.000384  d :    20.000383
      dxz     :     4.000000
      dyz     :     4.000000
      dx2y2   :     4.000000
      dxy     :     4.000000
      f0      :     0.001262  f :     0.002246
      f+1     :     0.000492
      f-1     :     0.000492
      f+2     :     0.000000
      f-2     :     0.000000
      f+3     :     0.000000
      f-3     :     0.000000
      g0      :     0.000001  g :     0.000002
      g+1     :     0.000000
      g-1     :     0.000000
      g+2     :     0.000000
      g-2     :     0.000000
      g+3     :     0.000000
      g-3     :     0.000000
      g+4     :     0.000000
      g-4     :     0.000000
      h0      :     0.000000  h :     0.000000
      h+1     :     0.000000
      h-1     :     0.000000
      h+2     :     0.000000
      h-2     :     0.000000
      h+3     :     0.000000
      h-3     :     0.000000
      h+4     :     0.000000
      h-4     :     0.000000
      h+5     :     0.000000
      h-5     :     0.000000

  1 Q 

  2 Q 



                      *****************************
                      * MAYER POPULATION ANALYSIS *
                      *****************************

  NA   - Mulliken gross atomic population
  ZA   - Total nuclear charge
  QA   - Mulliken gross atomic charge
  VA   - Mayer's total valence
  BVA  - Mayer's bonded valence
  FA   - Mayer's free valence

  ATOM       NA         ZA         QA         VA         BVA        FA
  0 Ce    54.0000    58.0000     4.0000     0.0000     0.0000     0.0000
  1 Q      0.0000    -2.0000    -2.0000     0.0000     0.0000     0.0000
  2 Q      0.0000    -2.0000    -2.0000     0.0000     0.0000     0.0000

  Mayer bond orders larger than 0.100000
  => no bond orders to print

-------
TIMINGS
-------

Total SCF time: 0 days 0 hours 0 min 11 sec 

Total time                  ....      11.265 sec
Sum of individual times     ....      10.545 sec  ( 93.6%)

SCF preparation             ....       0.045 sec  (  0.4%)
Fock matrix formation       ....      10.449 sec  ( 92.8%)
  Startup                   ....       0.001 sec  (  0.0% of F)
  Coulomb+Exchange Fock     ....      11.153 sec  (106.7% of F)
Diagonalization             ....       0.000 sec  (  0.0%)
Density matrix formation    ....       0.007 sec  (  0.1%)
Total Energy calculation    ....       0.004 sec  (  0.0%)
Population analysis         ....       0.004 sec  (  0.0%)
Orbital Transformation      ....       0.003 sec  (  0.0%)
Orbital Orthonormalization  ....       0.000 sec  (  0.0%)
DIIS solution               ....       0.014 sec  (  0.1%)
SOSCF solution              ....       0.021 sec  (  0.2%)
Finished LeanSCF after  11.3 sec

Maximum memory used throughout the entire LEANSCF-calculation: 38.4 MB


           ************************************************************
           *        Program running with 4 parallel MPI-processes     *
           *              working on a common directory               *
           ************************************************************

------------------------------------------------------------------------------
                         ORCA PROPERTY INTEGRAL CALCULATIONS
------------------------------------------------------------------------------

GBWName                                   ... start.gbw
Number of atoms                           ...      3
Number of basis functions                 ...    176
Max core memory                           ...   2000 MB

Dipole integrals                          ... YES(DKH)
Quadrupole integrals                      ...  NO
Linear momentum integrals                 ...  NO
Angular momentum integrals                ...  NO
Higher moments length integrals           ...  NO
Higher moments velocity integrals         ...  NO
Kinetic energy integrals                  ...  NO
GIAO right hand sides                     ...  NO
GIAO dipole derivative integrals          ...  NO
SOC integrals                             ...  NO
EPR diamagnetic integrals (GIAO)          ...  NO
EPR gauge integrals                       ...  NO
Field gradient integrals                  ...  NO (   0 nuclei)
Spin-dipole/Fermi contact integrals       ...  NO (   0 nuclei)
Contact density integrals                 ...  NO (   0 nuclei)
Nucleus-orbit integrals                   ...  NO (   0 nuclei)
Geometric perturbations                   ...  NO (   3 nuclei)

DKH transformation order                  ... Second
Note: picture-change corrections are only included
      for the integrals annotated with "YES(DKH)"!

Choice of electric origin   ... Center of mass
Position of electric origin ... (  0.0000,  0.0000,  0.0000) 
Choice of magnetic origin   ... GIAO
Position of magnetic origin ... (  0.0000,  0.0000,  0.0000) 

Calculating integrals                     ... Electric Dipole (Length)     done (  0.0 sec)

Property integrals calculated in   0.0 sec

Maximum memory used throughout the entire PROPINT-calculation: 27.7 MB

-------------------------   --------------------
FINAL SINGLE POINT ENERGY     -8852.664200906460
-------------------------   --------------------



           ************************************************************
           *        Program running with 4 parallel MPI-processes     *
           *              working on a common directory               *
           ************************************************************

------------------------------------------------------------------------------
                              ORCA PROPERTY CALCULATIONS
------------------------------------------------------------------------------

GBWName                                 ... start.gbw
Number of atoms                         ...      3
Number of basis functions               ...    176
Max core memory                         ...   2000 MB

Electric properties:
Dipole moment                           ... YES(DKH)
Quadrupole moment                       ...  NO
Static polarizability (Dipole/Dipole)   ...  NO
Static polarizability (Dipole/Quad.)    ...  NO
Static polarizability (Quad./Quad.)     ...  NO
Static polarizability (Velocity)        ...  NO
Static hyperpolarizability              ...  NO

Atomic electric properties:
Dipole moment                           ...  NO
Quadrupole moment                       ...  NO
Static polarizability                   ...  NO

Choice of electric origin               ... Center of mass
Position of electric origin             ...     0.000000     0.000000     0.000000

General magnetic properties:
Magnetizability                         ...  NO

EPR properties:
g-Tensor (aka g-matrix)                 ...  NO
Zero-Field splitting spin-orbit         ...  NO
Zero-field splitting spin-spin          ...  NO
Hyperfine couplings                     ...  NO (   0 nuclei)
Quadrupole couplings                    ...  NO (   0 nuclei)
Contact density                         ...  NO (   0 nuclei)

NMR properties:
Chemical shifts                         ...  NO (   0 nuclei)
Spin-rotation constants                 ...  NO (   0 nuclei)
Spin-spin couplings                     ...  NO (   0 nuclei,    0 pairs)

Choice of magnetic origin               ... GIAO
Position of magnetic origin             ...     0.000000     0.000000     0.000000

Properties with geometric perturbations:
SCF Hessian                             ...  NO
IR spectrum                             ...  NO
VCD spectrum                            ...  NO
X-ray spectroscopy properties:
SCF XES/XAS/RIXS spectra                ...  NO

SCF SOC stabilization energy            ...  NO
Diagonal Born-Oppenheimer correction    ...  NO
DKH transformation order                ... Second
Note: picture-change corrections are only included
      for the properties annotated with "YES(DKH)"!


-------------
DIPOLE MOMENT
-------------

Method             : SCF
Type of density    : Electron Density
Multiplicity       :   1
Irrep              :   0
Energy             : -8852.6642009064598824 Eh
Basis              : AO
                                X                 Y                 Z
Electronic contribution:      0.000000000       0.000000000       0.000000000
Nuclear contribution   :      0.000000000       0.000000000       0.000000000
                        -----------------------------------------
Total Dipole Moment    :      0.000000000       0.000000000       0.000000000
                        -----------------------------------------
Magnitude (a.u.)       :      0.000000000
Magnitude (Debye)      :      0.000000000



--------------------
Rotational spectrum 
--------------------
 
Rotational constants in cm-1:             0.000000             0.000000             0.000000 
Rotational constants in MHz :             0.000000             0.000000             0.000000 

Dipole components along the rotational axes: 
x,y,z [a.u.] :     0.000000     0.000000     0.000000 
x,y,z [Debye]:     0.000000     0.000000     0.000000 

 

Dipole moment calculation done in   0.0 sec 

Maximum memory used throughout the entire PROP-calculation: 19.3 MB

--------------------------------
SUGGESTED CITATIONS FOR THIS RUN
--------------------------------

Below you find a list of papers that are relevant to this ORCA run
We neither can nor want to force you to cite these papers, but we appreciate if you do
You receive ORCA, which is the product of decades of hard work by many enthusiastic individuals, for free
The only thing we kindly ask in return is that you cite our papers,
We deeply appreciate it, if you show your appreciation for ORCA by not just citing the generic ORCA reference.

Please note that relegating all ORCA citations to the supporting information does *not* help us.
SI sections are not indexed - citations you put there will not count into any citation statistics
But we need these citations in order to attract the funding resources that allow us to do what we are doing

Therefore, if you are a happy ORCA user, please consider citing a few of the papers listed below in the main body of your paper

In addition to the list printed below, the program has created the file start.bibtex that contains the list in bibtex format
You can import this file easily into all common literature databanks and citation aid programs


List of essential papers. We consider these as the minimum necessary citations

  1. Neese, F.
     Software update: the ORCA program system, version 6.0
     WIRES Comput. Molec. Sci. 2025 15(1), e70019
     doi.org/10.1002/wcms.7019

List of papers to cite with high priority. The work reported in these papers was absolutely
necessary for this run to complete.
Our perspective: the developers of density functionals and basis sets usually get cited in chemistry papers
Good! But without the algorithms to do something with them, the functionals or basis sets would not do anything.
Hence, in our opinion, the algorithm design and method developments papers are equally worthy of getting cited

  1. Neese, F.
     The SHARK Integral Generation and Digestion System
     J. Comp. Chem. 2022 44(3), 381
     doi.org/10.1002/jcc.26942

List of suggested additional citations. These are papers that are important in the 'surrounding' of 
of this run, or papers that preceded the highly important papers. If you like your results we are grateful for a citation.

  1. Neese, F.
     The ORCA program system
     WIRES Comput. Molec. Sci. 2012 2(1), 73-78
     doi.org/10.1002/wcms.81
  2. Neese, F.
     Software update: the ORCA program system, version 4.0
     WIRES Comput. Molec. Sci. 2018 8(1), 1-6
     doi.org/10.1002/wcms.1327
  3. Neese, F.; Wennmohs, F.; Becker, U.; Riplinger, C.
     The ORCA quantum chemistry program package
     J. Chem. Phys. 2020 152(22), 224108
     doi.org/10.1063/5.0004608
  4. Neese, F.
     Software update: The ORCA program system—Version 5.0
     WIRES Comput. Molec. Sci. 2022 12(1), e1606
     doi.org/10.1002/wcms.1606

List of optional additional citations

  1. Neese, F.
     Approximate second-order SCF convergence for spin unrestricted wavefunctions
     Chem. Phys. Lett. 2000 325(1-3), 93-98
     doi.org/10.1016/s0009-2614(00)00662-x

Timings for individual modules:

Sum of individual times          ...       12.679 sec (=   0.211 min)
Startup calculation              ...        0.458 sec (=   0.008 min)   3.6 %
Relativistic integrals           ...        0.241 sec (=   0.004 min)   1.9 %
SCF iterations                   ...       11.593 sec (=   0.193 min)  91.4 %
Property integrals               ...        0.206 sec (=   0.003 min)   1.6 %
Property calculations            ...        0.182 sec (=   0.003 min)   1.4 %


                 $$$$$$$$$$$$$$$$  JOB NUMBER  2 $$$$$$$$$$$$$$


                       ****************************
                       * Single Point Calculation *
                       ****************************

---------------------------------
CARTESIAN COORDINATES (ANGSTROEM)
---------------------------------
  Ce     0.000000    0.000000    0.000000
  Q      0.000000    0.000000    3.000000
  Q      0.000000    0.000000   -3.000000

----------------------------
CARTESIAN COORDINATES (A.U.)
----------------------------
  NO LB      ZA    FRAG     MASS         X           Y           Z
   0 Ce   58.0000    0   140.120    0.000000    0.000000    0.000000
   1 Q    -2.0000    0     0.000    0.000000    0.000000    5.669178
   2 Q    -2.0000    0     0.000    0.000000    0.000000   -5.669178

--------------------------------
INTERNAL COORDINATES (ANGSTROEM)
--------------------------------
 Ce     0   0   0     0.000000000000     0.00000000     0.00000000
 Q      1   0   0     3.000000000000     0.00000000     0.00000000
 Q      1   2   0     3.000000000000   180.00000000     0.00000000

---------------------------
INTERNAL COORDINATES (A.U.)
---------------------------
 Ce     0   0   0     0.000000000000     0.00000000     0.00000000
 Q      1   0   0     5.669178401764     0.00000000     0.00000000
 Q      1   2   0     5.669178401764   180.00000000     0.00000000

---------------------
BASIS SET INFORMATION
---------------------
There are 2 groups of distinct atoms

 Group   1 Type Ce  : 23s16p12d7f3g2h contracted to 18s12p9d4f3g2h pattern {611111111111111111/511111111111/411111111/4111/111/11}
 Group   2 Type Q,> :  contracted to  pattern {}

Atom   0Ce   basis set group =>   1
Atom   1Q    basis set group =>   2
Atom   2Q    basis set group =>   2

-------------------------
BASIS SET IN INPUT FORMAT
-------------------------

 # Basis set for element : Ce
 NewGTO Ce
 S 6 
   1  4164893.9330000002      0.0666997706
   2  1746533.6972699999     -0.0164045319
   3  732402.7945910000      0.1330635198
   4  307130.5491350000      0.1014543436
   5  128794.1210880000      0.3252184804
   6   54009.3640100000      0.5378991546
 S 1 
   1   22648.6378115000      1.0000000000
 S 1 
   1    9497.6270155800      1.0000000000
 S 1 
   1    3982.7966554900      1.0000000000
 S 1 
   1    1670.1718411300      1.0000000000
 S 1 
   1     700.3807174200      1.0000000000
 S 1 
   1     293.7022031200      1.0000000000
 S 1 
   1     123.1629911800      1.0000000000
 S 1 
   1      51.6479693900      1.0000000000
 S 1 
   1      21.6583952400      1.0000000000
 S 1 
   1       9.0823722600      1.0000000000
 S 1 
   1       3.8086610300      1.0000000000
 S 1 
   1       1.5971486700      1.0000000000
 S 1 
   1       0.6697587100      1.0000000000
 S 1 
   1       0.2808609700      1.0000000000
 S 1 
   1       0.1177780700      1.0000000000
 S 1 
   1       0.0493898200      1.0000000000
 S 1 
   1       0.0207114500      1.0000000000
 P 5 
   1   10250.8572900000      0.0137121216
   2    4253.7372305200      0.0165605710
   3    1765.1480178100      0.0857534179
   4     732.4729657600      0.2544504178
   5     303.9499464900      0.7296872944
 P 1 
   1     126.1283000100      1.0000000000
 P 1 
   1      52.3387098600      1.0000000000
 P 1 
   1      21.7186828800      1.0000000000
 P 1 
   1       9.0124725500      1.0000000000
 P 1 
   1       3.7398520900      1.0000000000
 P 1 
   1       1.5519041600      1.0000000000
 P 1 
   1       0.6439844300      1.0000000000
 P 1 
   1       0.2672303900      1.0000000000
 P 1 
   1       0.1108910000      1.0000000000
 P 1 
   1       0.0460157800      1.0000000000
 P 1 
   1       0.0190948900      1.0000000000
 D 4 
   1     471.3247647000      0.0236868881
   2     201.3047939600      0.0783336207
   3      85.9781261400      0.3105350649
   4      36.7216201300      0.7028944656
 D 1 
   1      15.6839587600      1.0000000000
 D 1 
   1       6.6986849100      1.0000000000
 D 1 
   1       2.8610365600      1.0000000000
 D 1 
   1       1.2219607800      1.0000000000
 D 1 
   1       0.5219046000      1.0000000000
 D 1 
   1       0.2229076500      1.0000000000
 D 1 
   1       0.0952048000      1.0000000000
 D 1 
   1       0.0406623700      1.0000000000
 F 4 
   1      56.0402988900      0.0293080513
   2      22.4911107600      0.1160683846
   3       9.0265411400      0.3777515545
   4       3.6226954600      0.6577058500
 F 1 
   1       1.4539259500      1.0000000000
 F 1 
   1       0.5835159700      1.0000000000
 F 1 
   1       0.2341872300      1.0000000000
 G 1 
   1      22.7525000000      1.0000000000
 G 1 
   1       4.7500000000      1.0000000000
 G 1 
   1       0.9916492693      1.0000000000
 H 1 
   1       9.4642000000      1.0000000000
 H 1 
   1       3.7911392405      1.0000000000
  end;

 # Basis set for element : Q 
 NewGTO Q 
  end;



           ************************************************************
           *        Program running with 4 parallel MPI-processes     *
           *              working on a common directory               *
           ************************************************************
------------------------------------------------------------------------------
                             ORCA STARTUP CALCULATIONS
------------------------------------------------------------------------------
------------------------------------------------------------------------------
                   ___                                                        
                  /   \      - P O W E R E D   B Y -                         
                 /     \                                                     
                 |  |  |   _    _      __       _____    __    __             
                 |  |  |  | |  | |    /  \     |  _  \  |  |  /  |          
                  \  \/   | |  | |   /    \    | | | |  |  | /  /          
                 / \  \   | |__| |  /  /\  \   | |_| |  |  |/  /          
                |  |  |   |  __  | /  /__\  \  |    /   |      \           
                |  |  |   | |  | | |   __   |  |    \   |  |\   \          
                \     /   | |  | | |  |  |  |  | |\  \  |  | \   \       
                 \___/    |_|  |_| |__|  |__|  |_| \__\ |__|  \__/        
                                                                              
                      - O R C A' S   B I G   F R I E N D -                    
                                      &                                       
                       - I N T E G R A L  F E E D E R -                       
                                                                              
 v1 FN, 2020, v2 2021, v3 2022-2024                                           
------------------------------------------------------------------------------


----------------------
SHARK INTEGRAL PACKAGE
----------------------

Number of atoms                             ...      3
Number of basis functions                   ...    176
Number of shells                            ...     48
Maximum angular momentum                    ...      5
Integral batch strategy                     ... SHARK/LIBINT Hybrid
RI-J (if used) integral strategy            ... SPLIT-RIJ (Revised 2003 algorithm where possible)
Printlevel                                  ...      1
Contraction scheme used                     ... SEGMENTED contraction
Prescreening option                         ... SCHWARTZ
   Thresh                                   ... 2.500e-11
   Tcut                                     ... 2.500e-12
   Tpresel                                  ... 2.500e-12 
Coulomb Range Separation                    ... NOT USED
Exchange Range Separation                   ... NOT USED
Multipole approximations                    ... NOT USED
Finite Nucleus Model                        ... NOT USED
CABS basis                                  ... NOT available
Auxiliary Coulomb fitting basis             ... NOT available
Auxiliary J/K fitting basis                 ... NOT available
Auxiliary Correlation fitting basis         ... NOT available
Auxiliary 'external' fitting basis          ... NOT available

Checking pre-screening integrals            ... done (  0.0 sec) Dimension = 48
   => SHARK Basis and OBASIS are compatible. Storing Pre-screening
Shell pair information
Shell pair cut-off parameter TPreSel        ...   2.5e-12
Total number of shell pairs                 ...      1176
Shell pairs after pre-screening             ...      1174
Total number of primitive shell pairs       ...      2053
Primitive shell pairs kept                  ...      2041
          la=0 lb=0:    171 shell pairs
          la=1 lb=0:    216 shell pairs
          la=1 lb=1:     78 shell pairs
          la=2 lb=0:    162 shell pairs
          la=2 lb=1:    108 shell pairs
          la=2 lb=2:     45 shell pairs
          la=3 lb=0:     72 shell pairs
          la=3 lb=1:     48 shell pairs
          la=3 lb=2:     36 shell pairs
          la=3 lb=3:     10 shell pairs
          la=4 lb=0:     53 shell pairs
          la=4 lb=1:     36 shell pairs
          la=4 lb=2:     27 shell pairs
          la=4 lb=3:     12 shell pairs
          la=4 lb=4:      6 shell pairs
          la=5 lb=0:     35 shell pairs
          la=5 lb=1:     24 shell pairs
          la=5 lb=2:     18 shell pairs
          la=5 lb=3:      8 shell pairs
          la=5 lb=4:      6 shell pairs
          la=5 lb=5:      3 shell pairs

Checking whether 4 symmetric matrices of dimension 176 fit in memory
:Max Core in MB      =   2000.00
 MB in use           =      7.25
 MB left             =   1992.75
 MB needed           =      0.48
 Data fit in memory  = YES
Calculating Nuclear repulsion               ... done (  0.0 sec) ENN=    -40.570252636333 Eh

Diagonalization of the overlap matrix:
Smallest eigenvalue                        ... 1.265e-03
Time for diagonalization                   ...    0.001 sec
Threshold for overlap eigenvalues          ... 1.000e-07
Number of eigenvalues below threshold      ... 0
Time for construction of square roots      ...    0.001 sec
Total time needed                          ...    0.002 sec

-------------------
DFT GRID GENERATION
-------------------

General Integration Accuracy     IntAcc      ... 4.388
Radial Grid Type                 RadialGrid  ... OptM3 with GC (2021)
Angular Grid (max. ang.)         AngularGrid ... 4 (Lebedev-302)
Angular grid pruning method      GridPruning ... 4 (adaptive)
Weight generation scheme         WeightScheme... mBecke (2022)
Basis function cutoff            BFCut       ... 1.0000e-11
Integration weight cutoff        WCut        ... 1.0000e-14
Partially contracted basis set               ... off
Rotationally invariant grid construction     ... off
Angular grids for H and He will be reduced by one unit
Core-polarized basis detected: some atoms will have their core
                               angular grid increased.
Steep s-basis detected: some atoms will have their radial
                        grid points doubled.

Total number of grid points                  ...    29240
Total number of batches                      ...      459
Average number of points per batch           ...       63
Average number of grid points per atom       ...     9747
Grids setup in   0.2 sec
Initializing property integral containers    ... done (  0.0 sec)

SHARK setup successfully completed in   0.3 seconds

Maximum memory used throughout the entire STARTUP-calculation: 38.2 MB


           ************************************************************
           *        Program running with 4 parallel MPI-processes     *
           *              working on a common directory               *
           ************************************************************
------------------------------------------------------------------------------
                          ORCA RELATIVISTIC HAMILTONIAN
------------------------------------------------------------------------------

Relativistic Method            ... DKH
Order of DKH treatment         ...   2
Treatment of potential         ... V(e,N)
Eps parameter for DKH          ...   0.00000000010000
Nucleus model                  ... Point Nucleus
Speed of light used            ... 137.03598950000000


            ************************************************
            *        DOUGLAS-KROLL-HESS HAMILTONIAN        *
            *   Programmed by FN according to literature   *
            *        procedures. Special thanks to         *
            *       B.A. Hess, M. Reiher and A. Wolf       *
            *     University Erlangen-Nuernberg/Bonn       *
            ************************************************

Uncontracting the basis (first version)        ... done
Number of contracted basis functions           ...  176
Number of uncontracted basis functions         ...  229
Initializing the DKH file                      ... done
Calculating the relativistic integrals         ... done
Storing DKH matrices                           ... done
Computing the DKH transformation               ... done
Storing the transformation variables           ... done
Transforming V and pVp to p**2 space           ... done
First transformation of V and pVp              ... done
Second transformation of Veff                  ... done
Adding kinetic energy                          ... done
Back transformation of Veff to r-space         ... done
Recovering DKH matrices                        ... done
Recontracting the H-matrix (first version)     ... done
Computing the DKH correction to the H-matrix   ... done
Reading the original H-matrix                  ... done
Adding DKH correction to the H-matrix          ... done
Storing the new modified H-matrix              ... done

Maximum memory used throughout the entire REL-calculation: 41.5 MB


           ************************************************************
           *        Program running with 4 parallel MPI-processes     *
           *              working on a common directory               *
           ************************************************************
-------------------------------------------------------------------------------
                                 ORCA GUESS
                   Start orbitals & Density for SCF / CASSCF
-------------------------------------------------------------------------------

------------
SCF SETTINGS
------------
Hamiltonian:
 Ab initio Hamiltonian  Method          .... Hartree-Fock(GTOs)

Relativistic Settings:
 Scalar relativistic method             .... Douglas-Kroll-Hess
 Order of DKH procedure    Order        ....    2
 Mode of DKH-treatment                  .... V=V(e,N)
 Speed of light used       Velit        ....       137.035989
 Cutoff-constant           Eps          ....            1e-10 


General Settings:
 Integral files         IntName         .... cerium_job2
 Hartree-Fock type      HFTyp           .... CASSCF
 Total Charge           Charge          ....    3
 Multiplicity           Mult            ....    2
 Number of Electrons    NEL             ....   55
 Basis Dimension        Dim             ....  176
 Nuclear Repulsion      ENuc            ....    -40.5702526363 Eh

---------------------
INITIAL GUESS: MOREAD
---------------------
Guess MOs are being read from file: start.gbw
Input Geometry matches current geometry (good)
Input basis set matches current basis set (good)
Occupation numbers will be reassigned to an Aufbau configuration
MOs were renormalized
Gram-Schmidt orthogonalization of all MOs with pivot on actives
                      ------------------
                      INITIAL GUESS DONE (   0.0 sec)
                      ------------------
----------------------
INITIAL GUESS ORBITALS
----------------------
                      0         1         2         3         4         5   
                 -1493.09124 -244.00489 -218.70579 -218.70576 -218.70576 -55.05606
                   2.00000   2.00000   2.00000   2.00000   2.00000   2.00000
                  --------  --------  --------  --------  --------  --------
  0Ce  1s        -0.030211 -0.010843  0.000000 -0.000000 -0.000000  0.004953
  0Ce  2s        -0.035999 -0.013454  0.000000  0.000000 -0.000000  0.006193
  0Ce  3s        -0.073253 -0.027848  0.000000 -0.000000 -0.000000  0.012798
  0Ce  4s        -0.154937 -0.062596  0.000000  0.000000 -0.000000  0.029233
  0Ce  5s        -0.289014 -0.132448  0.000000 -0.000000 -0.000000  0.062596
  0Ce  6s        -0.381291 -0.219090 -0.000000  0.000000 -0.000000  0.108924
  0Ce  7s        -0.205921 -0.127511  0.000000 -0.000000 -0.000000  0.064355
  0Ce  8s        -0.012732  0.479150  0.000000  0.000000  0.000000 -0.351592
  0Ce  9s        -0.002797  0.633203 -0.000000 -0.000000 -0.000000 -0.717293
  0Ce 10s         0.002052  0.069611  0.000000  0.000000  0.000000  0.546675
  0Ce 11s        -0.001308  0.009607 -0.000000 -0.000000 -0.000000  0.861938
  0Ce 12s         0.000845 -0.007584  0.000000  0.000000  0.000000 -0.017860
  0Ce 13s        -0.000543  0.004978 -0.000000 -0.000000 -0.000000  0.045258
  0Ce 14s         0.000340 -0.003215  0.000000  0.000000  0.000000 -0.028879
  0Ce 15s        -0.000205  0.001983 -0.000000 -0.000000 -0.000000  0.017649
  0Ce 16s         0.000115 -0.001121 -0.000000 -0.000000 -0.000000 -0.010040
  0Ce 17s        -0.000054  0.000525  0.000000  0.000000  0.000000  0.004713
  0Ce 18s         0.000015 -0.000148  0.000000 -0.000000  0.000000 -0.001335
  0Ce  1pz       -0.000000  0.000000  0.358996  0.000000 -0.000002 -0.000000
  0Ce  1px       -0.000000  0.000000  0.000000  0.351313  0.073866 -0.000000
  0Ce  1py       -0.000000 -0.000000  0.000002 -0.073866  0.351313 -0.000000
  0Ce  2pz        0.000000  0.000000  0.461161  0.000001 -0.000003 -0.000000
  0Ce  2px        0.000000 -0.000000  0.000000  0.451293  0.094887 -0.000000
  0Ce  2py        0.000000 -0.000000  0.000003 -0.094887  0.451293 -0.000000
  0Ce  3pz       -0.000000  0.000000  0.307527  0.000000 -0.000002  0.000000
  0Ce  3px       -0.000000  0.000000  0.000000  0.300947  0.063276 -0.000000
  0Ce  3py       -0.000000 -0.000000  0.000002 -0.063276  0.300947 -0.000000
  0Ce  4pz        0.000000  0.000000  0.026351  0.000000 -0.000000  0.000000
  0Ce  4px        0.000000  0.000000  0.000000  0.025789  0.005422  0.000000
  0Ce  4py        0.000000 -0.000000  0.000000 -0.005422  0.025789  0.000000
  0Ce  5pz       -0.000000 -0.000000  0.004338  0.000000 -0.000000  0.000000
  0Ce  5px       -0.000000 -0.000000  0.000000  0.004245  0.000892  0.000000
  0Ce  5py       -0.000000  0.000000  0.000000 -0.000892  0.004245 -0.000000
  0Ce  6pz        0.000000  0.000000 -0.003128 -0.000000  0.000000  0.000000
  0Ce  6px        0.000000  0.000000 -0.000000 -0.003061 -0.000644 -0.000000
  0Ce  6py        0.000000  0.000000 -0.000000  0.000644 -0.003061 -0.000000
  0Ce  7pz       -0.000000  0.000000  0.001888  0.000000 -0.000000 -0.000000
  0Ce  7px        0.000000 -0.000000  0.000000  0.001848  0.000388  0.000000
  0Ce  7py       -0.000000  0.000000  0.000000 -0.000388  0.001848 -0.000000
  0Ce  8pz        0.000000 -0.000000 -0.001168 -0.000000  0.000000 -0.000000
  0Ce  8px       -0.000000  0.000000 -0.000000 -0.001143 -0.000240 -0.000000
  0Ce  8py       -0.000000 -0.000000 -0.000000  0.000240 -0.001143  0.000000
  0Ce  9pz       -0.000000  0.000000  0.000692  0.000000 -0.000000  0.000000
  0Ce  9px        0.000000 -0.000000  0.000000  0.000677  0.000142  0.000000
  0Ce  9py        0.000000  0.000000  0.000000 -0.000142  0.000677 -0.000000
  0Ce 10pz        0.000000 -0.000000 -0.000387 -0.000000  0.000000 -0.000000
  0Ce 10px       -0.000000  0.000000 -0.000000 -0.000379 -0.000080 -0.000000
  0Ce 10py       -0.000000 -0.000000 -0.000000  0.000080 -0.000379 -0.000000
  0Ce 11pz       -0.000000  0.000000  0.000187  0.000000 -0.000000  0.000000
  0Ce 11px        0.000000 -0.000000  0.000000  0.000183  0.000039  0.000000
  0Ce 11py        0.000000  0.000000  0.000000 -0.000039  0.000183  0.000000
  0Ce 12pz        0.000000 -0.000000 -0.000059 -0.000000  0.000000 -0.000000
  0Ce 12px       -0.000000  0.000000 -0.000000 -0.000058 -0.000012  0.000000
  0Ce 12py       -0.000000 -0.000000 -0.000000  0.000012 -0.000058 -0.000000
  0Ce  1dz2       0.000000 -0.000000 -0.000000  0.000000  0.000000 -0.000023
  0Ce  1dxz      -0.000000  0.000000  0.000000  0.000000 -0.000000  0.000000
  0Ce  1dyz       0.000000 -0.000000 -0.000000 -0.000000  0.000000 -0.000000
  0Ce  1dx2y2    -0.000000  0.000000 -0.000000 -0.000000 -0.000000  0.000000
  0Ce  1dxy       0.000000  0.000000 -0.000000  0.000000  0.000000 -0.000000
  0Ce  2dz2      -0.000000 -0.000001 -0.000000 -0.000000 -0.000000 -0.000032
  0Ce  2dxz       0.000000 -0.000000  0.000000 -0.000000 -0.000000 -0.000000
  0Ce  2dyz      -0.000000  0.000000  0.000000 -0.000000 -0.000000  0.000000
  0Ce  2dx2y2     0.000000 -0.000000 -0.000000  0.000000  0.000000 -0.000000
  0Ce  2dxy      -0.000000 -0.000000  0.000000  0.000000  0.000000  0.000000
  0Ce  3dz2      -0.000000 -0.000000 -0.000000  0.000000  0.000000 -0.000011
  0Ce  3dxz      -0.000000  0.000000 -0.000000  0.000000  0.000000  0.000000
  0Ce  3dyz       0.000000 -0.000000 -0.000000  0.000000  0.000000 -0.000000
  0Ce  3dx2y2    -0.000000  0.000000  0.000000 -0.000000 -0.000000  0.000000
  0Ce  3dxy       0.000000  0.000000 -0.000000 -0.000000 -0.000000 -0.000000
  0Ce  4dz2       0.000000 -0.000000  0.000000 -0.000000 -0.000000  0.000005
  0Ce  4dxz       0.000000 -0.000000  0.000000 -0.000000 -0.000000 -0.000000
  0Ce  4dyz      -0.000000  0.000000  0.000000 -0.000000 -0.000000  0.000000
  0Ce  4dx2y2     0.000000 -0.000000 -0.000000  0.000000  0.000000 -0.000000
  0Ce  4dxy      -0.000000 -0.000000  0.000000 -0.000000 -0.000000  0.000000
  0Ce  5dz2      -0.000000  0.000000 -0.000000  0.000000  0.000000 -0.000002
  0Ce  5dxz      -0.000000  0.000000 -0.000000  0.000000  0.000000  0.000000
  0Ce  5dyz       0.000000 -0.000000  0.000000  0.000000  0.000000 -0.000000
  0Ce  5dx2y2    -0.000000 -0.000000  0.000000 -0.000000 -0.000000 -0.000000
  0Ce  5dxy       0.000000  0.000000 -0.000000  0.000000  0.000000 -0.000000
  0Ce  6dz2      -0.000000 -0.000000  0.000000 -0.000000 -0.000000  0.000001
  0Ce  6dxz       0.000000 -0.000000  0.000000 -0.000000 -0.000000 -0.000000
  0Ce  6dyz      -0.000000  0.000000 -0.000000 -0.000000 -0.000000  0.000000
  0Ce  6dx2y2     0.000000  0.000000 -0.000000  0.000000  0.000000  0.000000
  0Ce  6dxy      -0.000000 -0.000000  0.000000 -0.000000 -0.000000  0.000000
  0Ce  7dz2      -0.000000 -0.000000 -0.000000  0.000000  0.000000 -0.000001
  0Ce  7dxz      -0.000000  0.000000 -0.000000  0.000000  0.000000  0.000000
  0Ce  7dyz       0.000000 -0.000000 -0.000000  0.000000  0.000000 -0.000000
  0Ce  7dx2y2     0.000000 -0.000000  0.000000 -0.000000 -0.000000 -0.000000
  0Ce  7dxy       0.000000  0.000000 -0.000000  0.000000  0.000000 -0.000000
  0Ce  8dz2      -0.000000  0.000000  0.000000 -0.000000 -0.000000  0.000002
  0Ce  8dxz       0.000000 -0.000000  0.000000 -0.000000 -0.000000 -0.000000
  0Ce  8dyz      -0.000000  0.000000  0.000000  0.000000  0.000000  0.000000
  0Ce  8dx2y2     0.000000  0.000000 -0.000000  0.000000  0.000000  0.000000
  0Ce  8dxy      -0.000000 -0.000000 -0.000000 -0.000000 -0.000000  0.000000
  0Ce  9dz2       0.000000 -0.000000 -0.000000 -0.000000 -0.000000 -0.000002
  0Ce  9dxz      -0.000000  0.000000  0.000000  0.000000  0.000000  0.000000
  0Ce  9dyz       0.000000 -0.000000 -0.000000 -0.000000 -0.000000 -0.000000
  0Ce  9dx2y2    -0.000000 -0.000000  0.000000 -0.000000 -0.000000 -0.000000
  0Ce  9dxy       0.000000  0.000000 -0.000000  0.000000  0.000000 -0.000000
  0Ce  1f0       -0.000000  0.000000 -0.000000 -0.000000  0.000000  0.000000
  0Ce  1f+1       0.000000 -0.000000 -0.000000 -0.000000 -0.000000 -0.000000
  0Ce  1f-1      -0.000000  0.000000 -0.000000  0.000000 -0.000000 -0.000000
  0Ce  1f+2       0.000000 -0.000000  0.000000  0.000000  0.000000 -0.000000
  0Ce  1f-2       0.000000  0.000000  0.000000  0.000000  0.000000 -0.000000
  0Ce  1f+3       0.000000 -0.000000 -0.000000  0.000000  0.000000 -0.000000
  0Ce  1f-3      -0.000000  0.000000 -0.000000  0.000000 -0.000000 -0.000000
  0Ce  2f0        0.000000 -0.000000  0.000000  0.000000 -0.000000 -0.000000
  0Ce  2f+1       0.000000  0.000000  0.000000  0.000000  0.000000  0.000000
  0Ce  2f-1       0.000000 -0.000000  0.000000 -0.000000  0.000000  0.000000
  0Ce  2f+2      -0.000000 -0.000000 -0.000000 -0.000000 -0.000000  0.000000
  0Ce  2f-2      -0.000000 -0.000000 -0.000000 -0.000000 -0.000000  0.000000
  0Ce  2f+3      -0.000000  0.000000  0.000000 -0.000000 -0.000000  0.000000
  0Ce  2f-3      -0.000000  0.000000 -0.000000  0.000000  0.000000 -0.000000
  0Ce  3f0       -0.000000  0.000000 -0.000000 -0.000000  0.000000  0.000000
  0Ce  3f+1      -0.000000 -0.000000 -0.000000 -0.000000 -0.000000 -0.000000
  0Ce  3f-1      -0.000000  0.000000 -0.000000  0.000000 -0.000000 -0.000000
  0Ce  3f+2       0.000000  0.000000  0.000000  0.000000  0.000000  0.000000
  0Ce  3f-2      -0.000000  0.000000  0.000000  0.000000  0.000000  0.000000
  0Ce  3f+3      -0.000000 -0.000000 -0.000000 -0.000000 -0.000000 -0.000000
  0Ce  3f-3       0.000000 -0.000000  0.000000 -0.000000 -0.000000  0.000000
  0Ce  4f0        0.000000 -0.000000  0.000000  0.000000  0.000000 -0.000000
  0Ce  4f+1       0.000000  0.000000  0.000000  0.000000  0.000000  0.000000
  0Ce  4f-1       0.000000  0.000000  0.000000 -0.000000  0.000000 -0.000000
  0Ce  4f+2      -0.000000  0.000000  0.000000  0.000000  0.000000 -0.000000
  0Ce  4f-2       0.000000 -0.000000 -0.000000 -0.000000 -0.000000 -0.000000
  0Ce  4f+3       0.000000  0.000000  0.000000  0.000000  0.000000  0.000000
  0Ce  4f-3      -0.000000  0.000000 -0.000000  0.000000  0.000000 -0.000000
  0Ce  1g0       -0.000000 -0.000000  0.000000  0.000000  0.000000 -0.000000
  0Ce  1g+1       0.000000  0.000000  0.000000  0.000000  0.000000  0.000000
  0Ce  1g-1       0.000000 -0.000000  0.000000  0.000000  0.000000 -0.000000
  0Ce  1g+2       0.000000  0.000000 -0.000000  0.000000 -0.000000  0.000000
  0Ce  1g-2      -0.000000  0.000000  0.000000  0.000000  0.000000  0.000000
  0Ce  1g+3      -0.000000  0.000000 -0.000000 -0.000000 -0.000000  0.000000
  0Ce  1g-3       0.000000 -0.000000  0.000000  0.000000  0.000000 -0.000000
  0Ce  1g+4      -0.000000  0.000000 -0.000000 -0.000000 -0.000000 -0.000000
  0Ce  1g-4       0.000000 -0.000000  0.000000  0.000000  0.000000 -0.000000
  0Ce  2g0       -0.000000 -0.000000 -0.000000 -0.000000 -0.000000  0.000000
  0Ce  2g+1      -0.000000  0.000000 -0.000000 -0.000000 -0.000000  0.000000
  0Ce  2g-1      -0.000000  0.000000 -0.000000 -0.000000 -0.000000  0.000000
  0Ce  2g+2       0.000000 -0.000000 -0.000000 -0.000000 -0.000000 -0.000000
  0Ce  2g-2       0.000000 -0.000000  0.000000  0.000000  0.000000 -0.000000
  0Ce  2g+3       0.000000 -0.000000  0.000000  0.000000  0.000000 -0.000000
  0Ce  2g-3      -0.000000  0.000000 -0.000000 -0.000000 -0.000000  0.000000
  0Ce  2g+4       0.000000 -0.000000  0.000000  0.000000  0.000000 -0.000000
  0Ce  2g-4       0.000000 -0.000000 -0.000000 -0.000000 -0.000000 -0.000000
  0Ce  3g0       -0.000000 -0.000000  0.000000  0.000000 -0.000000  0.000000
[...]
           |   0.146025  -0.000000  -0.000000 | X:   0.146025 |   0.090488   0.995898  -0.000000 |
 279.00000 |  -0.000000   0.146025   0.000000 | Y:   0.146025 |   0.995898  -0.090488   0.000000 |
           |  -0.000000   0.000000   1.600969 | Z:   1.600969 |  -0.000000   0.000000   1.000000 |
-----------|------ x -------- y -------- z ---|---------------|------ x -------- y -------- z ---|
           |   0.146549  -0.000000  -0.000000 | X:   0.146549 |   0.090523   0.995894  -0.000000 |
 280.00000 |  -0.000000   0.146549   0.000000 | Y:   0.146549 |   0.995894  -0.090523   0.000000 |
           |  -0.000000   0.000000   1.600939 | Z:   1.600939 |  -0.000000   0.000000   1.000000 |
-----------|------ x -------- y -------- z ---|---------------|------ x -------- y -------- z ---|
           |   0.147074  -0.000000  -0.000000 | X:   0.147074 |   0.090558   0.995891  -0.000000 |
 281.00000 |  -0.000000   0.147074   0.000000 | Y:   0.147074 |   0.995891  -0.090558   0.000000 |
           |  -0.000000   0.000000   1.600909 | Z:   1.600909 |  -0.000000   0.000000   1.000000 |
-----------|------ x -------- y -------- z ---|---------------|------ x -------- y -------- z ---|
           |   0.147598  -0.000000  -0.000000 | X:   0.147598 |   0.090594   0.995888  -0.000000 |
 282.00000 |  -0.000000   0.147598   0.000000 | Y:   0.147598 |   0.995888  -0.090594   0.000000 |
           |  -0.000000   0.000000   1.600878 | Z:   1.600878 |  -0.000000   0.000000   1.000000 |
-----------|------ x -------- y -------- z ---|---------------|------ x -------- y -------- z ---|
           |   0.148123  -0.000000  -0.000000 | X:   0.148123 |   0.090630   0.995885  -0.000000 |
 283.00000 |  -0.000000   0.148123   0.000000 | Y:   0.148123 |   0.995885  -0.090630   0.000000 |
           |  -0.000000   0.000000   1.600847 | Z:   1.600847 |  -0.000000   0.000000   1.000000 |
-----------|------ x -------- y -------- z ---|---------------|------ x -------- y -------- z ---|
           |   0.148647  -0.000000  -0.000000 | X:   0.148647 |   0.090667   0.995881  -0.000000 |
 284.00000 |  -0.000000   0.148647   0.000000 | Y:   0.148647 |   0.995881  -0.090667   0.000000 |
           |  -0.000000   0.000000   1.600815 | Z:   1.600815 |  -0.000000   0.000000   1.000000 |
-----------|------ x -------- y -------- z ---|---------------|------ x -------- y -------- z ---|
           |   0.149172  -0.000000  -0.000000 | X:   0.149172 |   0.090704   0.995878  -0.000000 |
 285.00000 |  -0.000000   0.149172   0.000000 | Y:   0.149172 |   0.995878  -0.090704   0.000000 |
           |  -0.000000   0.000000   1.600782 | Z:   1.600782 |  -0.000000   0.000000   1.000000 |
-----------|------ x -------- y -------- z ---|---------------|------ x -------- y -------- z ---|
           |   0.149696  -0.000000  -0.000000 | X:   0.149696 |   0.090742   0.995874  -0.000000 |
 286.00000 |  -0.000000   0.149696   0.000000 | Y:   0.149696 |   0.995874  -0.090742   0.000000 |
           |  -0.000000   0.000000   1.600748 | Z:   1.600748 |  -0.000000   0.000000   1.000000 |
-----------|------ x -------- y -------- z ---|---------------|------ x -------- y -------- z ---|
           |   0.150221  -0.000000  -0.000000 | X:   0.150221 |   0.090780   0.995871  -0.000000 |
 287.00000 |  -0.000000   0.150221   0.000000 | Y:   0.150221 |   0.995871  -0.090780   0.000000 |
           |  -0.000000   0.000000   1.600714 | Z:   1.600714 |  -0.000000   0.000000   1.000000 |
-----------|------ x -------- y -------- z ---|---------------|------ x -------- y -------- z ---|
           |   0.150745  -0.000000  -0.000000 | X:   0.150745 |   0.090819   0.995867  -0.000000 |
 288.00000 |  -0.000000   0.150745   0.000000 | Y:   0.150745 |   0.995867  -0.090819   0.000000 |
           |  -0.000000   0.000000   1.600680 | Z:   1.600680 |  -0.000000   0.000000   1.000000 |
-----------|------ x -------- y -------- z ---|---------------|------ x -------- y -------- z ---|
           |   0.151270  -0.000000  -0.000000 | X:   0.151270 |   0.090858   0.995864  -0.000000 |
 289.00000 |  -0.000000   0.151270   0.000000 | Y:   0.151270 |   0.995864  -0.090858   0.000000 |
           |  -0.000000   0.000000   1.600645 | Z:   1.600645 |  -0.000000   0.000000   1.000000 |
-----------|------ x -------- y -------- z ---|---------------|------ x -------- y -------- z ---|
           |   0.151794  -0.000000  -0.000000 | X:   0.151794 |   0.090898   0.995860  -0.000000 |
 290.00000 |  -0.000000   0.151794   0.000000 | Y:   0.151794 |   0.995860  -0.090898   0.000000 |
           |  -0.000000   0.000000   1.600609 | Z:   1.600609 |  -0.000000   0.000000   1.000000 |
-----------|------ x -------- y -------- z ---|---------------|------ x -------- y -------- z ---|
           |   0.152319  -0.000000  -0.000000 | X:   0.152319 |   0.090938   0.995857  -0.000000 |
 291.00000 |  -0.000000   0.152319   0.000000 | Y:   0.152319 |   0.995857  -0.090938   0.000000 |
           |  -0.000000   0.000000   1.600572 | Z:   1.600572 |  -0.000000   0.000000   1.000000 |
-----------|------ x -------- y -------- z ---|---------------|------ x -------- y -------- z ---|
           |   0.152844  -0.000000  -0.000000 | X:   0.152844 |   0.090979   0.995853  -0.000000 |
 292.00000 |  -0.000000   0.152844   0.000000 | Y:   0.152844 |   0.995853  -0.090979   0.000000 |
           |  -0.000000   0.000000   1.600535 | Z:   1.600535 |  -0.000000   0.000000   1.000000 |
-----------|------ x -------- y -------- z ---|---------------|------ x -------- y -------- z ---|
           |   0.153368  -0.000000  -0.000000 | X:   0.153368 |   0.091020   0.995849  -0.000000 |
 293.00000 |  -0.000000   0.153368   0.000000 | Y:   0.153368 |   0.995849  -0.091020   0.000000 |
           |  -0.000000   0.000000   1.600497 | Z:   1.600497 |  -0.000000   0.000000   1.000000 |
-----------|------ x -------- y -------- z ---|---------------|------ x -------- y -------- z ---|
           |   0.153893  -0.000000  -0.000000 | X:   0.153893 |   0.091062   0.995845  -0.000000 |
 294.00000 |  -0.000000   0.153893   0.000000 | Y:   0.153893 |   0.995845  -0.091062   0.000000 |
           |  -0.000000   0.000000   1.600459 | Z:   1.600459 |  -0.000000   0.000000   1.000000 |
-----------|------ x -------- y -------- z ---|---------------|------ x -------- y -------- z ---|
           |   0.154418  -0.000000  -0.000000 | X:   0.154418 |   0.091105   0.995841  -0.000000 |
 295.00000 |  -0.000000   0.154418   0.000000 | Y:   0.154418 |   0.995841  -0.091105   0.000000 |
           |  -0.000000   0.000000   1.600419 | Z:   1.600419 |  -0.000000   0.000000   1.000000 |
-----------|------ x -------- y -------- z ---|---------------|------ x -------- y -------- z ---|
           |   0.154943  -0.000000  -0.000000 | X:   0.154943 |   0.091148   0.995837  -0.000000 |
 296.00000 |  -0.000000   0.154943   0.000000 | Y:   0.154943 |   0.995837  -0.091148   0.000000 |
           |  -0.000000   0.000000   1.600380 | Z:   1.600380 |  -0.000000   0.000000   1.000000 |
-----------|------ x -------- y -------- z ---|---------------|------ x -------- y -------- z ---|
           |   0.155468  -0.000000  -0.000000 | X:   0.155468 |   0.091191   0.995833  -0.000000 |
 297.00000 |  -0.000000   0.155468   0.000000 | Y:   0.155468 |   0.995833  -0.091191   0.000000 |
           |  -0.000000   0.000000   1.600339 | Z:   1.600339 |  -0.000000   0.000000   1.000000 |
-----------|------ x -------- y -------- z ---|---------------|------ x -------- y -------- z ---|
           |   0.155992  -0.000000  -0.000000 | X:   0.155992 |   0.091235   0.995829  -0.000000 |
 298.00000 |  -0.000000   0.155992   0.000000 | Y:   0.155992 |   0.995829  -0.091235   0.000000 |
           |  -0.000000   0.000000   1.600298 | Z:   1.600298 |  -0.000000   0.000000   1.000000 |
-----------|------ x -------- y -------- z ---|---------------|------ x -------- y -------- z ---|
           |   0.156517  -0.000000  -0.000000 | X:   0.156517 |   0.091279   0.995825  -0.000000 |
 299.00000 |  -0.000000   0.156517   0.000000 | Y:   0.156517 |   0.995825  -0.091279   0.000000 |
           |  -0.000000   0.000000   1.600256 | Z:   1.600256 |  -0.000000   0.000000   1.000000 |
-----------|------ x -------- y -------- z ---|---------------|------ x -------- y -------- z ---|
           |   0.157042  -0.000000  -0.000000 | X:   0.157042 |   0.091324   0.995821  -0.000000 |
 300.00000 |  -0.000000   0.157042   0.000000 | Y:   0.157042 |   0.995821  -0.091324   0.000000 |
           |  -0.000000   0.000000   1.600214 | Z:   1.600214 |  -0.000000   0.000000   1.000000 |
-------------------------------------------------------------------------------------------------|
Computation of the magnetization torque ... skipped by the user
Computation of the molar magnetization ... skipped by the user

-@-#-$-%-&-*--@-#-$-%-&-*--@-#-$-%-&-*--@-#-$-%-&-*--@-#-$-%-&-*--@-#-$-%-&-*--@-#-$-%-&-*--@-#-$-%-&-*--@-#-$-%-&-*--@-#-$-%-&-*-

          HAPPY   LANDING !!!   SINGLE_ANISO ENDED  OK !

-*-&-%-$-#-@--*-&-%-$-#-@--*-&-%-$-#-@--*-&-%-$-#-@--*-&-%-$-#-@--*-&-%-$-#-@--*-&-%-$-#-@--*-&-%-$-#-@--*-&-%-$-#-@--*-&-%-$-#-@-
 SINGLE_ANISO finished sucessfully!



-------------------------------------------------------------------------------
                              ORCA-AILFT
-------------------------------------------------------------------------------

[file orca_tools/SHARK/shark_setup_ri.cpp, line 82]: Error (SHARK/SelectAuxBasis): AuxC requested but not present


ORCA finished by error termination in AILFT
Calling Command: /home/dumitruc/Programs/orca610/orca_ailft cerium_job2 
  .... trying to continue anyways

--------------
CASSCF TIMINGS
--------------

Total time                       ...        1.0 sec
Sum of individual times          ...        1.0 sec ( 99.4%)

Calculation of AO operators
Calculation of MO transformed quantities
Configuration interaction steps
   CI-setup phase                ...        0.8 sec ( 78.2%)
Orbital improvement steps
Properties                       ...        0.2 sec ( 21.1%)
   SOC integral calculation      ...        0.0 sec (  0.0%)
   SSC RMEs (incl. integrals)    ...        0.0 sec (  0.0%)
   SOC RMEs                      ...        0.0 sec (  0.0%)

Maximum memory used throughout the entire CASSCF-calculation: 47.3 MB

-------------------------   --------------------
FINAL SINGLE POINT ENERGY     -8853.254944537357
-------------------------   --------------------



           ************************************************************
           *        Program running with 4 parallel MPI-processes     *
           *              working on a common directory               *
           ************************************************************

------------------------------------------------------------------------------
                              ORCA PROPERTY CALCULATIONS
------------------------------------------------------------------------------

GBWName                                 ... cerium_job2.gbw
Number of atoms                         ...      3
Number of basis functions               ...    176
Max core memory                         ...   2000 MB

Electric properties:
Dipole moment                           ... YES(DKH)
Quadrupole moment                       ...  NO
Static polarizability (Dipole/Dipole)   ...  NO
Static polarizability (Dipole/Quad.)    ...  NO
Static polarizability (Quad./Quad.)     ...  NO
Static polarizability (Velocity)        ...  NO
Static hyperpolarizability              ...  NO

Atomic electric properties:
Dipole moment                           ...  NO
Quadrupole moment                       ...  NO
Static polarizability                   ...  NO

Choice of electric origin               ... Center of mass
Position of electric origin             ...     0.000000     0.000000     0.000000

General magnetic properties:
Magnetizability                         ...  NO

EPR properties:
g-Tensor (aka g-matrix)                 ...  NO
Zero-Field splitting spin-orbit         ...  NO
Zero-field splitting spin-spin          ...  NO
Hyperfine couplings                     ...  NO (   0 nuclei)
Quadrupole couplings                    ...  NO (   0 nuclei)
Contact density                         ...  NO (   0 nuclei)

NMR properties:
Chemical shifts                         ...  NO (   0 nuclei)
Spin-rotation constants                 ...  NO (   0 nuclei)
Spin-spin couplings                     ...  NO (   0 nuclei,    0 pairs)

Choice of magnetic origin               ... Center of nuclear charge
Position of magnetic origin             ...     0.000000     0.000000     0.000000

Properties with geometric perturbations:
SCF Hessian                             ...  NO
IR spectrum                             ...  NO
VCD spectrum                            ...  NO
X-ray spectroscopy properties:
SCF XES/XAS/RIXS spectra                ...  NO

SCF SOC stabilization energy            ...  NO
Diagonal Born-Oppenheimer correction    ...  NO
DKH transformation order                ... Second
Note: picture-change corrections are only included
      for the properties annotated with "YES(DKH)"!


-------------
DIPOLE MOMENT
-------------

Method             : CASSCF/ALL STATES AVERAGE
Type of density    : Electron Density
Level              : Unrelaxed density
State              :  -1
Multiplicity       :  -1
Irrep              :   0
Energy             : -8853.2434543010876951 Eh
Basis              : AO
                                X                 Y                 Z
Electronic contribution:      0.000000000       0.000000000       0.000000000
Nuclear contribution   :      0.000000000       0.000000000       0.000000000
                        -----------------------------------------
Total Dipole Moment    :      0.000000000       0.000000000       0.000000000
                        -----------------------------------------
Magnitude (a.u.)       :      0.000000000
Magnitude (Debye)      :      0.000000000



--------------------
Rotational spectrum 
--------------------
 
Rotational constants in cm-1:             0.000000             0.000000             0.000000 
Rotational constants in MHz :             0.000000             0.000000             0.000000 

Dipole components along the rotational axes: 
x,y,z [a.u.] :     0.000000     0.000000     0.000000 
x,y,z [Debye]:     0.000000     0.000000     0.000000 

 

Dipole moment calculation done in   0.0 sec 

Maximum memory used throughout the entire PROP-calculation: 19.3 MB

--------------------------------
SUGGESTED CITATIONS FOR THIS RUN
--------------------------------

Below you find a list of papers that are relevant to this ORCA run
We neither can nor want to force you to cite these papers, but we appreciate if you do
You receive ORCA, which is the product of decades of hard work by many enthusiastic individuals, for free
The only thing we kindly ask in return is that you cite our papers,
We deeply appreciate it, if you show your appreciation for ORCA by not just citing the generic ORCA reference.

Please note that relegating all ORCA citations to the supporting information does *not* help us.
SI sections are not indexed - citations you put there will not count into any citation statistics
But we need these citations in order to attract the funding resources that allow us to do what we are doing

Therefore, if you are a happy ORCA user, please consider citing a few of the papers listed below in the main body of your paper

In addition to the list printed below, the program has created the file cerium_job2.bibtex that contains the list in bibtex format
You can import this file easily into all common literature databanks and citation aid programs


List of essential papers. We consider these as the minimum necessary citations

  1. Neese, F.
     Software update: the ORCA program system, version 6.0
     WIRES Comput. Molec. Sci. 2025 15(1), e70019
     doi.org/10.1002/wcms.7019

List of papers to cite with high priority. The work reported in these papers was absolutely
necessary for this run to complete.
Our perspective: the developers of density functionals and basis sets usually get cited in chemistry papers
Good! But without the algorithms to do something with them, the functionals or basis sets would not do anything.
Hence, in our opinion, the algorithm design and method developments papers are equally worthy of getting cited

  1. Ganyushin, D.; Neese, F.
     First-principles calculations of zero-field splitting parameters
     J. Chem. Phys. 2006 125(2), Art. No. 024103
     doi.org/10.1063/1.2213976
  2. Atanasov, M.; Ganyushin, D.; Sivalingam, K.; Neese, F.
     A Modern First-Principles View on Ligand Field Theory Through the Eyes of Correlated Multireference Wavefunctions
     Struct. Bond. 2012 142 , 149-220
     doi.org/10.1007/430_2011_57
  3. Kollmar, C.; Sivalingam, K.; Helmich-Paris, B.; Angeli, C.; Neese, F.
     A perturbation-based super-CI approach for the orbital optimization of a CASSCF wave function
     J. Comput. Chem. 2019 40 , 1463-1470
     doi.org/10.1002/jcc.25801
  4. Lang, L.; Neese, F.
     Spin-dependent properties in the framework of the dynamic correlation dressed complete active space method
     J. Chem. Phys. 2019 150 , 
     doi.org/10.1063/1.5085203
  5. Neese, F.
     The SHARK Integral Generation and Digestion System
     J. Comp. Chem. 2022 44(3), 381
     doi.org/10.1002/jcc.26942
  6. Ugandi, M.; Roemelt, M.
     A recursive formulation of one-electron coupling coefficients for spin-adapted configuration interaction calculations featuring many unpaired electrons
     Int. J. Quantum Chem. 2023 123 , e27045
     doi.org/10.1002/qua.27045

List of suggested additional citations. These are papers that are important in the 'surrounding' of 
of this run, or papers that preceded the highly important papers. If you like your results we are grateful for a citation.

  1. Neese, F.
     The ORCA program system
     WIRES Comput. Molec. Sci. 2012 2(1), 73-78
     doi.org/10.1002/wcms.81
  2. Aravena, D.; Atanasov, M.; Neese, F.
     Periodic Trends in Lanthanide Compounds through the Eyes of Multireference ab Initio Theory
     Inorg. Chem. 2016 55(9), 4457-4469
     doi.org/10.1021/acs.inorgchem.6b00244
  3. Jung, J.L.; Atanasov, M.; Neese, F.
     Ab Initio Ligand-Field Theory Analysis and Covalency Trends in Actinide and Lanthanide Free Ions and Octahedral Complexes
     Inorg. Chem. 2016 56(15), 8802-8816
  4. Neese, F.
     Software update: the ORCA program system, version 4.0
     WIRES Comput. Molec. Sci. 2018 8(1), 1-6
     doi.org/10.1002/wcms.1327
  5. Neese, F.; Wennmohs, F.; Becker, U.; Riplinger, C.
     The ORCA quantum chemistry program package
     J. Chem. Phys. 2020 152(22), 224108
     doi.org/10.1063/5.0004608
  6. Neese, F.
     Software update: The ORCA program system—Version 5.0
     WIRES Comput. Molec. Sci. 2022 12(1), e1606
     doi.org/10.1002/wcms.1606

List of optional additional citations

  1. Neese, F.
     Approximate second-order SCF convergence for spin unrestricted wavefunctions
     Chem. Phys. Lett. 2000 325(1-3), 93-98
     doi.org/10.1016/s0009-2614(00)00662-x

Timings for individual modules:

Sum of individual times          ...       41.790 sec (=   0.697 min)
Startup calculation              ...        0.457 sec (=   0.008 min)   1.1 %
Relativistic integrals           ...        0.255 sec (=   0.004 min)   0.6 %
SCF iterations                   ...        0.181 sec (=   0.003 min)   0.4 %
CASSCF iterations                ...       25.231 sec (=   0.421 min)  60.4 %
Property integrals               ...       15.490 sec (=   0.258 min)  37.1 %
Property calculations            ...        0.176 sec (=   0.003 min)   0.4 %



                             ****ORCA TERMINATED NORMALLY****
TOTAL RUN TIME: 0 days 0 hours 0 minutes 55 seconds 31 msec
