SCRATCH DIRECTORY IS: /media/scratch/dumitruc/cerium.14123

                                 *****************
                                 * O   R   C   A *
                                 *****************

                                            #,                                       
                                            ###                                      
                                            ####                                     
                                            #####                                    
                                            ######                                   
                                           ########,                                 
                                     ,,################,,,,,                         
                               ,,#################################,,                 
                          ,,##########################################,,             
                       ,#########################################, ''#####,          
                    ,#############################################,,   '####,        
                  ,##################################################,,,,####,       
                ,###########''''           ''''###############################       
              ,#####''   ,,,,##########,,,,          '''####'''          '####       
            ,##' ,,,,###########################,,,                        '##       
           ' ,,###''''                  '''############,,,                           
         ,,##''                                '''############,,,,        ,,,,,,###''
      ,#''                                            '''#######################'''  
     '                                                          ''''####''''         
             ,#######,   #######,   ,#######,      ##                                
            ,#'     '#,  ##    ##  ,#'     '#,    #''#        ,####,    ,#,          
            ##       ##  ##   ,#'  ##            #'  '#       #'       ,# #          
            ##       ##  #######   ##           ,######,      #####,      #          
            '#,     ,#'  ##    ##  '#,     ,#' ,#      #,     #,   #      #          
             '#######'   ##     ##  '#######'  #'      '#     '####' #    #          



                #########################################################
                #                        -***-                          #
                #          Department of theory and spectroscopy        #
                #                                                       #
                #                      Frank Neese                      #
                #                                                       #
                #     Directorship, Architecture, Infrastructure        #
                #                    SHARK, DRIVERS                     #
                #        Core code/Algorithms in most modules           #
                #                                                       #
                #        Max Planck Institute fuer Kohlenforschung      #
                #                Kaiser Wilhelm Platz 1                 #
                #                 D-45470 Muelheim/Ruhr                 #
                #                      Germany                          #
                #                                                       #
                #                  All rights reserved                  #
                #                        -***-                          #
                #########################################################


                         Program Version 6.1.0  -  RELEASE   -
                                (GIT: $679e74b$)
                          ($2025-06-10 18:02:51 +0200$)


 With contributions from (in alphabetic order):
[Max-Planck-Institut fuer Kohlenforschung]                               
  Daniel Aravena         : Magnetic Suceptibility                        
  Michael Atanasov       : Ab Initio Ligand Field Theory (pilot matlab implementation)
  Alexander A. Auer      : GIAO ZORA, VPT2 properties, NMR spectrum      
  Ute Becker             : All parallelization in ORCA, NUMFREQ, NUMCALC 
  Giovanni Bistoni       : ED, misc. LED, open-shell LED, HFLD           
  Dmytro Bykov           : pre 5.0 version of the SCF Hessian            
  Marcos Casanova-Páez   : Triplet and SCS-CIS(D). UHF-(DLPNO)-IP/EA/STEOM-CCSD. UHF-CVS-IP/STEOM-CCSD   
  Vijay G. Chilkuri      : MRCI spin determinant printing, contributions to CSF-ICE 
  Pauline Colinet        : FMM embedding                                 
  Dipayan Datta          : RHF DLPNO-CCSD density                        
  Achintya Kumar Dutta   : EOM-CC, STEOM-CC                              
  Nicolas Foglia         : Exact transition moments, OPA infrastructure, MCD improvements    
  Dmitry Ganyushin       : Spin-Orbit,Spin-Spin,Magnetic field MRCI      
  Miquel Garcia-Rates    : C-PCM and meta-GGA Hessian, CCSD/C-PCM, Gaussian charge scheme 
  Tiago L. C. Gouveia    : GS-ROHF, GS-ROCIS                             
  Yang Guo               : DLPNO-NEVPT2, F12-NEVPT2, CIM, IAO-localization        
  Andreas Hansen         : Spin unrestricted coupled pair/coupled cluster methods 
  Ingolf Harden          : AUTO-CI MPn and infrastructure                
  Benjamin Helmich-Paris : MC-RPA, TRAH-(SCF,CASSCF), AVAS, COSX integrals, SCF dyn. polar., MC-PDFT, srDFT 
  Lee Huntington         : MR-EOM, pCC                                   
  Robert Izsak           : Overlap fitted RIJCOSX, COSX-SCS-MP3, EOM     
  Riya Kayal             : Wick's Theorem for AUTO-CI, AUTO-CI UHF-CCSDT 
  Emily Kempfer          : AUTO-CI RHF CISDT and CCSDT, approximate NEVPT4
  Christian Kollmar      : KDIIS, OOCD, Brueckner-CCSD(T), CCSD density, CASPT2, CASPT2-K, improved NEVPT2 
  Axel Koslowski         : Symmetry handling                             
  Simone Kossmann        : meta-GGA functionals, TD-DFT gradient, OOMP2, (MP2 Hessian; deprecated post 5.0) 
  Lucas Lang             : DCDCAS, Hyperfine gauge corrections, ICE-SOC+SSC
  Marvin Lechner         : AUTO-CI (C++ implementation), FIC-MRCC        
  Spencer Leger          : CASSCF response                               
  Dagmar Lenk            : GEPOL surface, SMD, ORCA-2-JSON               
  Dimitrios Liakos       : Extrapolation schemes; Compound Job, Property file
  Dimitrios Manganas     : Further ROCIS development; embedding schemes. LFT, Crystal Embedding 
  Dimitrios Pantazis     : SARC Basis sets                               
  Anastasios Papadopoulos: AUTO-CI, single reference methods and gradients 
  Taras Petrenko         : pre 6.0 DFT Hessian and TD-DFT gradient,  ECA, NRVS 
  Petra Pikulova         : Analytic Raman intensities                    
  Peter Pinski           : DLPNO-MP2, DLPNO-MP2 Gradient                 
  Shashank Vittal Rao    : ES-AILFT, MagRelax                            
  Christoph Reimann      : Effective Core Potentials                     
  Marius Retegan         : Local ZFS, SOC                                
  Christoph Riplinger    : Optimizer, TS searches, QM/MM, DLPNO-CCSD(T), (RO)-DLPNO pert. Triples 
  Michael Roemelt        : Original ROCIS implementation, recursive CI coupling coefficients
  Masaaki Saitow         : Open-shell DLPNO-CCSD energy and density      
  Barbara Sandhoefer     : DKH picture change effects                    
  Yorick L. A. Schmerwitz: GMF and freeze-and-release deltaSCF, NEB S-IDPP initial path                    
  Kantharuban Sivalingam : CASSCF convergence/infrastructure, NEVPT2, NEVPT3, NEVPT4(SD), FIC-MRCI and CEPA variants
  Bernardo de Souza      : ESD, SOC TD-DFT                               
  Georgi L. Stoychev     : AutoAux, RI-MP2 NMR, DLPNO-MP2 response, X2C  
  Van Anh Tran           : RI-MP2 g-tensors                              
  Willem Van den Heuvel  : Paramagnetic NMR                              
  Zikuan Wang            : NOTCH, Electric field optimization            
  Frank Wennmohs         : Technical directorship and infrastructure     
  Hang Xu                : AUTO-CI-Response properties                   
                                                                         
[FACCTs GmbH]                                                            
  Markus Bursch, Nicolas Foglia, Miquel Garcia-Rates, Ingolf Harden, Hagen Neugebauer, Anastasios Papadopoulos, 
  Christoph Riplinger, Bernardo de Souza, Georgi L. Stoychev                                                    
                                                                 
  APM, various basis sets, CI-OPT, improved COSX, DLPNO-Multilevel,           
  DOCKER, DRACO, updates on ESD, Fragmentator, GOAT, IRC, LR-CPCM, L-BFGS, MBIS, meta-GGA TD-DFT gradient, ML-optimized integration grids, 
  MM, NACMEs, nearIR, NEB, NEB-TS, NL-DFT gradient (VV10), 2- and 3-layer-ONIOM, interface openCOSMO-RS, QMMM,   
  Crystal-QMMM, RESP, rigid body optimization, SF, symmetry and pop. for TD-DFT, various functionals, SOLVATOR                                   
                                                                         
[Other institutions]                                                     
  V. Asgeirsson          : NEB                                           
  Christoph Bannwarth    : sTDA-DFT, sTD-DFT, PBEh-3c, B97-3c, D3        
  Giovanni Bistoni       : ETS/NOCV, ADLD/ADEX, COVALED                  
  Martin Brehm           : Molecular dynamics                            
  Ronald Cardenas        : ETS/NOCV                                      
  Martina Colucci        : COVALED                                       
  Sebastian Ehlert       : rSCAN, r2SCAN, r2SCAN-3c, D4, dhf basis sets  
  Marvin Friede          : D4 for Fr, Ra, Ac-Lr                          
  Lars Goerigk           : TD-DFT with DH, B97 family of functionals     
  Stefan Grimme          : VdW corrections, initial TS optimization, DFT functionals, gCP, sTDA/sTD-DF 
  Waldemar Hujo          : DFT-NL                                        
  H. Jonsson             : NEB                                           
  Holger Kruse           : gCP                                           
  Marcel Mueller         : wB97X-3c, vDZP basis set                      
  Hagen Neugebauer       : wr2SCAN, Native XTB                           
  Gianluca Regni         : ADLD/ADEX                                     
  Tobias Risthaus        : pre 6.0 range-separated hybrid DFT and stability analysis
  Lukas Wittmann         : regularized MP2, r2SCAN double-hybrids, wr2SCAN        
                                                                         
We gratefully acknowledge several colleagues who have allowed us to      
interface, adapt or use parts of their codes:                            
  Ed Valeev, F. Pavosevic, A. Kumar             : LibInt (2-el integral package), F12 methods 
  Garnet Chan, S. Sharma, J. Yang, R. Olivares  : DMRG                   
  Ulf Ekstrom                                   : XCFun DFT Library      
  Mihaly Kallay                                 : mrcc  (arbitrary order and MRCC methods)
  Frank Weinhold                                : gennbo (NPA and NBO analysis)           
  Simon Mueller                                 : openCOSMO-RS                            
  Christopher J. Cramer and Donald G. Truhlar   : smd solvation model                     
  S Lehtola, MJT Oliveira, MAL Marques          : LibXC Library                           
  Liviu Ungur et al                             : ANISO software                          


 Your calculation uses the libint2 library for the computation of 2-el integrals
 For citations please refer to: http://libint.valeyev.net

 Your ORCA version has been built with support for libXC version: 7.0.0
 For citations please refer to: https://libxc.gitlab.io

 This ORCA versions uses:
   CBLAS   interface :  Fast vector & matrix operations
   LAPACKE interface :  Fast linear algebra routines
   SCALAPACK package :  Parallel linear algebra routines
   Shared memory     :  Shared parallel matrices
   BLAS/LAPACK       :  OpenBLAS 0.3.29  USE64BITINT DYNAMIC_ARCH NO_AFFINITY Haswell SINGLE_THREADED
        Core in use  :  Haswell
   Copyright (c) 2011-2014, The OpenBLAS Project


  ***********************************
  * Starting time: Wed Oct 15 07:59:38 2025
  * Host name:     bohr
  * Process ID:    756998
  * Working dir.:  /media/scratch/dumitruc/cerium.14123
  ***********************************

NOTE: MaxCore=2000 MB was set to SCF,MP2,MDCI,CIPSI,MRCI,RASCI and CIS
      => If you want to overwrite this, your respective input block should be placed after the MaxCore statement
================================================================================

----- Orbital basis set information -----
Your calculation utilizes the basis: SARC2-DKH-QZVP
   D. Aravena, F. Neese and D. A. Pantazis, J. Chem. Theory Comput. 12, 1148 (2016).

================================================================================
                                        WARNINGS
                       Please study these warnings very carefully!
================================================================================


WARNING: The basis set has functions with high angular momentum (Lmax>4).
         We might need to increase small grids for safety reasons and
         in general, DEFGRID3 is recommend for such cases.
  ===> : GRIDX1, TD-DFT and the CP-SCF AngGrids will be increased to at least 2


WARNING: Relativistic property calculations require picture change transformations!
  ===> : Setting %rel PictureChange = 2

NOTE: MaxCore=2000 MB was set to SCF,MP2,MDCI,CIPSI,MRCI,RASCI and CIS
      => If you want to overwrite this, your respective input block should be placed after the MaxCore statement
================================================================================

----- Orbital basis set information -----
Your calculation utilizes the basis: SARC2-DKH-QZVP
   D. Aravena, F. Neese and D. A. Pantazis, J. Chem. Theory Comput. 12, 1148 (2016).

================================================================================
                                        WARNINGS
                       Please study these warnings very carefully!
================================================================================


WARNING: The basis set has functions with high angular momentum (Lmax>4).
         We might need to increase small grids for safety reasons and
         in general, DEFGRID3 is recommend for such cases.
  ===> : GRIDX1, TD-DFT and the CP-SCF AngGrids will be increased to at least 2


CAS(DoANISO) calculation requested: setting Magnetic origin to Nuclear Charge center
WARNING: In AILFT F2ff/F4ff remain undefined when considering only the HS Multiplicity block
         Be Careful with the results!
TIP:     If possible use in addition a LS Multiplicity Block

================================================================================
                                       INPUT FILE
================================================================================
NAME = cerium.inp
|  1> ! dkh
|  2> ! sarc2-dkh-qzvp
|  3> ! tightscf
|  4> ! nori
|  5> ! KDIIS SOSCF NOTRAH
|  6> ! pal4
|  7> %base "start"
|  8> 
|  9> %output
| 10>   Print[ P_ReducedOrbPopMO_M] 1
| 11> end
| 12> 
| 13> %maxcore 2000
| 14> 
| 15> *xyz 4 1
| 16> Ce    0.000000000000      0.000000000000      0.000000000000
| 17> Q -2  3.000000000000      0.000000000000      0.000000000000
| 18> Q -2 -3.000000000000      0.000000000000      0.000000000000
| 19> Q -2  0.000000000000      3.000000000000      0.000000000000
| 20> Q -2  0.000000000000     -3.000000000000      0.000000000000
| 21> *
| 22> 
| 23> $new_job
| 24> 
| 25> ! dkh
| 26> ! sarc2-dkh-qzvp
| 27> ! tightscf 
| 28> ! nori
| 29> ! pal4
| 30> ! moread
| 31> %moinp "start.gbw"
| 32> 
| 33> %maxcore 2000
| 34> 
| 35> %rel
| 36>   method DKH 
| 37>   picturechange 2
| 38> end
| 39> 
| 40> %output
| 41>   Print[ P_ReducedOrbPopMO_M] 1
| 42> end
| 43> 
| 44> %casscf
| 45>   nel     1
| 46>   norb    7
| 47>   mult    2
| 48>   nroots  7
| 49>   maxiter 120
| 50>   printwf det
| 51>   actorbs forbs
| 52>   ci
| 53>    TPrintWF   0
| 54>   end
| 55>   rel
| 56>     dosoc true
| 57>     tprint 0.0
| 58>   end
| 59>   aniso
| 60>     doaniso true
| 61>     quax 4
| 62>     mltp 2, 2, 2, 2, 2, 2, 2
| 63>     CRYS_element "Ce"
| 64>     CRYS_charge 3
| 65>     TINT 0, 300, 301
| 66>   end
| 67> end
| 68> 
| 69> *xyz 3 2
| 70> Ce    0.000000000000      0.000000000000      0.000000000000
| 71> Q -2  3.000000000000      0.000000000000      0.000000000000
| 72> Q -2 -3.000000000000      0.000000000000      0.000000000000
| 73> Q -2  0.000000000000      3.000000000000      0.000000000000
| 74> Q -2  0.000000000000     -3.000000000000      0.000000000000
| 75> *
| 76> 
| 77> 
| 78>                          ****END OF INPUT****
================================================================================


                 $$$$$$$$$$$$$$$$$$$$$$$$$$$$$$$$$$$$$$$$$$$$$$ 
                 $ THERE ARE  2 JOBS TO BE PROCESSED THIS RUN $
                 $$$$$$$$$$$$$$$$$$$$$$$$$$$$$$$$$$$$$$$$$$$$$$ 




                 $$$$$$$$$$$$$$$$  JOB NUMBER  1 $$$$$$$$$$$$$$


                       ****************************
                       * Single Point Calculation *
                       ****************************

---------------------------------
CARTESIAN COORDINATES (ANGSTROEM)
---------------------------------
  Ce     0.000000    0.000000    0.000000
  Q      3.000000    0.000000    0.000000
  Q     -3.000000    0.000000    0.000000
  Q      0.000000    3.000000    0.000000
  Q      0.000000   -3.000000    0.000000

----------------------------
CARTESIAN COORDINATES (A.U.)
----------------------------
  NO LB      ZA    FRAG     MASS         X           Y           Z
   0 Ce   58.0000    0   140.120    0.000000    0.000000    0.000000
   1 Q    -2.0000    0     0.000    5.669178    0.000000    0.000000
   2 Q    -2.0000    0     0.000   -5.669178    0.000000    0.000000
   3 Q    -2.0000    0     0.000    0.000000    5.669178    0.000000
   4 Q    -2.0000    0     0.000    0.000000   -5.669178    0.000000

--------------------------------
INTERNAL COORDINATES (ANGSTROEM)
--------------------------------
 Ce     0   0   0     0.000000000000     0.00000000     0.00000000
 Q      1   0   0     3.000000000000     0.00000000     0.00000000
 Q      1   2   0     3.000000000000   180.00000000     0.00000000
 Q      1   2   3     3.000000000000    90.00000000     0.00000000
 Q      1   2   4     3.000000000000    90.00000000   180.00000000

---------------------------
INTERNAL COORDINATES (A.U.)
---------------------------
 Ce     0   0   0     0.000000000000     0.00000000     0.00000000
 Q      1   0   0     5.669178401764     0.00000000     0.00000000
 Q      1   2   0     5.669178401764   180.00000000     0.00000000
 Q      1   2   3     5.669178401764    90.00000000     0.00000000
 Q      1   2   4     5.669178401764    90.00000000   180.00000000

---------------------
BASIS SET INFORMATION
---------------------
There are 2 groups of distinct atoms

 Group   1 Type Ce  : 23s16p12d7f3g2h contracted to 18s12p9d4f3g2h pattern {611111111111111111/511111111111/411111111/4111/111/11}
 Group   2 Type Q,> :  contracted to  pattern {}

Atom   0Ce   basis set group =>   1
Atom   1Q    basis set group =>   2
Atom   2Q    basis set group =>   2
Atom   3Q    basis set group =>   2
Atom   4Q    basis set group =>   2


           ************************************************************
           *        Program running with 4 parallel MPI-processes     *
           *              working on a common directory               *
           ************************************************************
------------------------------------------------------------------------------
                             ORCA STARTUP CALCULATIONS
------------------------------------------------------------------------------
------------------------------------------------------------------------------
                   ___                                                        
                  /   \      - P O W E R E D   B Y -                         
                 /     \                                                     
                 |  |  |   _    _      __       _____    __    __             
                 |  |  |  | |  | |    /  \     |  _  \  |  |  /  |          
                  \  \/   | |  | |   /    \    | | | |  |  | /  /          
                 / \  \   | |__| |  /  /\  \   | |_| |  |  |/  /          
                |  |  |   |  __  | /  /__\  \  |    /   |      \           
                |  |  |   | |  | | |   __   |  |    \   |  |\   \          
                \     /   | |  | | |  |  |  |  | |\  \  |  | \   \       
                 \___/    |_|  |_| |__|  |__|  |_| \__\ |__|  \__/        
                                                                              
                      - O R C A' S   B I G   F R I E N D -                    
                                      &                                       
                       - I N T E G R A L  F E E D E R -                       
                                                                              
 v1 FN, 2020, v2 2021, v3 2022-2024                                           
------------------------------------------------------------------------------


----------------------
SHARK INTEGRAL PACKAGE
----------------------

Number of atoms                             ...      5
Number of basis functions                   ...    176
Number of shells                            ...     48
Maximum angular momentum                    ...      5
Integral batch strategy                     ... SHARK/LIBINT Hybrid
RI-J (if used) integral strategy            ... SPLIT-RIJ (Revised 2003 algorithm where possible)
Printlevel                                  ...      1
Contraction scheme used                     ... SEGMENTED contraction
Prescreening option                         ... SCHWARTZ
   Thresh                                   ... 2.500e-11
   Tcut                                     ... 2.500e-12
   Tpresel                                  ... 2.500e-12 
Coulomb Range Separation                    ... NOT USED
Exchange Range Separation                   ... NOT USED
Multipole approximations                    ... NOT USED
Finite Nucleus Model                        ... NOT USED
CABS basis                                  ... NOT available
Auxiliary Coulomb fitting basis             ... NOT available
Auxiliary J/K fitting basis                 ... NOT available
Auxiliary Correlation fitting basis         ... NOT available
Auxiliary 'external' fitting basis          ... NOT available

Checking pre-screening integrals            ... done (  0.0 sec) Dimension = 48
   => SHARK Basis and OBASIS are compatible. Storing Pre-screening
Shell pair information
Shell pair cut-off parameter TPreSel        ...   2.5e-12
Total number of shell pairs                 ...      1176
Shell pairs after pre-screening             ...      1174
Total number of primitive shell pairs       ...      2053
Primitive shell pairs kept                  ...      2041
          la=0 lb=0:    171 shell pairs
          la=1 lb=0:    216 shell pairs
          la=1 lb=1:     78 shell pairs
          la=2 lb=0:    162 shell pairs
          la=2 lb=1:    108 shell pairs
          la=2 lb=2:     45 shell pairs
          la=3 lb=0:     72 shell pairs
          la=3 lb=1:     48 shell pairs
          la=3 lb=2:     36 shell pairs
          la=3 lb=3:     10 shell pairs
          la=4 lb=0:     53 shell pairs
          la=4 lb=1:     36 shell pairs
          la=4 lb=2:     27 shell pairs
          la=4 lb=3:     12 shell pairs
          la=4 lb=4:      6 shell pairs
          la=5 lb=0:     35 shell pairs
          la=5 lb=1:     24 shell pairs
          la=5 lb=2:     18 shell pairs
          la=5 lb=3:      8 shell pairs
          la=5 lb=4:      6 shell pairs
          la=5 lb=5:      3 shell pairs

Checking whether 4 symmetric matrices of dimension 176 fit in memory
:Max Core in MB      =   2000.00
 MB in use           =      7.26
 MB left             =   1992.74
 MB needed           =      0.48
 Data fit in memory  = YES
Calculating Nuclear repulsion               ... done (  0.0 sec) ENN=    -79.144853046329 Eh

Diagonalization of the overlap matrix:
Smallest eigenvalue                        ... 1.265e-03
Time for diagonalization                   ...    0.002 sec
Threshold for overlap eigenvalues          ... 1.000e-07
Number of eigenvalues below threshold      ... 0
Time for construction of square roots      ...    0.001 sec
Total time needed                          ...    0.004 sec

-------------------
DFT GRID GENERATION
-------------------

General Integration Accuracy     IntAcc      ... 4.388
Radial Grid Type                 RadialGrid  ... OptM3 with GC (2021)
Angular Grid (max. ang.)         AngularGrid ... 4 (Lebedev-302)
Angular grid pruning method      GridPruning ... 4 (adaptive)
Weight generation scheme         WeightScheme... mBecke (2022)
Basis function cutoff            BFCut       ... 1.0000e-11
Integration weight cutoff        WCut        ... 1.0000e-14
Partially contracted basis set               ... off
Rotationally invariant grid construction     ... off
Angular grids for H and He will be reduced by one unit
Core-polarized basis detected: some atoms will have their core
                               angular grid increased.
Steep s-basis detected: some atoms will have their radial
                        grid points doubled.

Total number of grid points                  ...    29240
Total number of batches                      ...      459
Average number of points per batch           ...       63
Average number of grid points per atom       ...     5848
Grids setup in   0.3 sec
Initializing property integral containers    ... done (  0.0 sec)

SHARK setup successfully completed in   0.5 seconds

Maximum memory used throughout the entire STARTUP-calculation: 38.2 MB


           ************************************************************
           *        Program running with 4 parallel MPI-processes     *
           *              working on a common directory               *
           ************************************************************
------------------------------------------------------------------------------
                          ORCA RELATIVISTIC HAMILTONIAN
------------------------------------------------------------------------------

Relativistic Method            ... DKH
Order of DKH treatment         ...   2
Treatment of potential         ... V(e,N)
Eps parameter for DKH          ...   0.00000000010000
Nucleus model                  ... Point Nucleus
Speed of light used            ... 137.03598950000000


            ************************************************
            *        DOUGLAS-KROLL-HESS HAMILTONIAN        *
            *   Programmed by FN according to literature   *
            *        procedures. Special thanks to         *
            *       B.A. Hess, M. Reiher and A. Wolf       *
            *     University Erlangen-Nuernberg/Bonn       *
            ************************************************

Uncontracting the basis (first version)        ... done
Number of contracted basis functions           ...  176
Number of uncontracted basis functions         ...  229
Initializing the DKH file                      ... done
Calculating the relativistic integrals         ... done
Storing DKH matrices                           ... done
Computing the DKH transformation               ... done
Storing the transformation variables           ... done
Transforming V and pVp to p**2 space           ... done
First transformation of V and pVp              ... done
Second transformation of Veff                  ... done
Adding kinetic energy                          ... done
Back transformation of Veff to r-space         ... done
Recovering DKH matrices                        ... done
Recontracting the H-matrix (first version)     ... done
Computing the DKH correction to the H-matrix   ... done
Reading the original H-matrix                  ... done
Adding DKH correction to the H-matrix          ... done
Storing the new modified H-matrix              ... done

Maximum memory used throughout the entire REL-calculation: 41.5 MB


           ************************************************************
           *        Program running with 4 parallel MPI-processes     *
           *              working on a common directory               *
           ************************************************************
-------------------------------------------------------------------------------
                                 ORCA GUESS
                   Start orbitals & Density for SCF / CASSCF
-------------------------------------------------------------------------------

------------
SCF SETTINGS
------------
Hamiltonian:
 Ab initio Hamiltonian  Method          .... Hartree-Fock(GTOs)

Relativistic Settings:
 Scalar relativistic method             .... Douglas-Kroll-Hess
 Order of DKH procedure    Order        ....    2
 Mode of DKH-treatment                  .... V=V(e,N)
 Speed of light used       Velit        ....       137.035989
 Cutoff-constant           Eps          ....            1e-10 


General Settings:
 Integral files         IntName         .... start
 Hartree-Fock type      HFTyp           .... RHF
 Total Charge           Charge          ....    4
 Multiplicity           Mult            ....    1
 Number of Electrons    NEL             ....   54
 Basis Dimension        Dim             ....  176
 Nuclear Repulsion      ENuc            ....    -79.1448530463 Eh

Convergence Acceleration:
 AO-DIIS                CNVDIIS         .... off
 MO-DIIS                CNVKDIIS        .... on
   # of expansion vecs  DIISMaxEq       ....     5
   Initial Damping      KDIISInitialDamp....     1
   Tranformation alg.   KDIISTransform  ....     1
 Trust-Rad. Augm. Hess. CNVTRAH         .... off
 SOSCF                 CNVSOSCF           .... on
   Start iteration     SOSCFMaxIt         ....   150
   Startup grad/error  SOSCFStart         ....  0.003300
   Hessian update      SOSCFHessUp        .... L-BFGS
   Autom. constraints  SOSCFAutoConstrain .... off
 Level Shifting         CNVShift        .... off
 Zerner damping         CNVZerner       .... off
 Static damping         CNVDamp         .... off

SCF Procedure:
 Maximum # iterations   MaxIter         ....   125
 SCF integral mode      SCFMode         .... Direct
   Integral package                     .... SHARK and LIBINT hybrid scheme
 Reset frequency        DirectResetFreq ....    20
 Integral Threshold     Thresh          ....  2.500e-11 Eh
 Primitive CutOff       TCut            ....  2.500e-12 Eh

Convergence Tolerance:
 Convergence Check Mode ConvCheckMode   .... Total+1el-Energy
 Convergence forced     ConvForced      .... 0
 Energy Change          TolE            ....  1.000e-08 Eh
 1-El. energy change                    ....  1.000e-05 Eh
 Orbital Gradient       TolG            ....  1.000e-05
 Orbital Rotation angle TolX            ....  1.000e-05

------------------------------
INITIAL GUESS: MODEL POTENTIAL
------------------------------
Loading DKH relativistic densities                 ... done
Calculating cut-offs                               ... done
Initializing the effective Hamiltonian             ... done
Setting up the integral package (SHARK)            ... done
Starting the Coulomb interaction                   ... done (   0.0 sec)
Making the grid                                    ... done (   0.1 sec)
Mapping shells                                     ... done
Starting the XC term evaluation                    ... done (   0.0 sec)
Transforming the Hamiltonian                       ... done (   0.0 sec)
Diagonalizing the Hamiltonian                      ... done (   0.0 sec)
Back transforming the eigenvectors                 ... done (   0.0 sec)
Now organizing SCF variables                       ... done
                      ------------------
                      INITIAL GUESS DONE (   0.1 sec)
                      ------------------
             **** ENERGY FILE WAS UPDATED (start.en.tmp) ****
Finished Guess after   0.2 sec
Maximum memory used throughout the entire GUESS-calculation: 18.6 MB


           ************************************************************
           *        Program running with 4 parallel MPI-processes     *
           *              working on a common directory               *
           ************************************************************

-------------------------------------------------------------------------------------------
                                      ORCA LEAN-SCF
                              memory conserving SCF solver
-------------------------------------------------------------------------------------------

----------------------------------------D-I-I-S--------------------------------------------
Iteration    Energy (Eh)           Delta-E    RMSDP     MaxDP     MaxGrad   Damp  Time(sec)
-------------------------------------------------------------------------------------------
               ***  Starting incremental Fock matrix formation  ***
                          ****Turning on DIIS(Cayley)****
    1    -8852.7066801359633246     0.00e+00  3.14e-03  7.87e-02  1.62e+00  0.900   2.4
    2    -8852.7983528939021198    -9.17e-02  5.02e-03  1.32e-01  1.46e+00  0.800   2.2
    3    -8852.9143201313527243    -1.16e-01  8.47e-03  2.24e-01  1.17e+00  0.600   2.2
    4    -8853.0549370177541277    -1.41e-01  1.36e-02  3.66e-01  7.01e-01  0.000   2.3
    5    -8853.1382057062601234    -8.33e-02  5.28e-04  1.09e-02  3.46e-03  0.000   2.3
                              *** Initializing SOSCF ***
---------------------------------------S-O-S-C-F--------------------------------------
Iteration    Energy (Eh)           Delta-E    RMSDP     MaxDP     MaxGrad    Time(sec)
--------------------------------------------------------------------------------------
    6    -8853.1383117682580632    -1.06e-04  2.60e-04  4.94e-03  1.55e-03     2.2
               *** Restarting incremental Fock matrix formation ***
    7    -8853.1383246850418800    -1.29e-05  8.06e-05  1.62e-03  9.02e-04     2.3
    8    -8853.1383301772366394    -5.49e-06  1.55e-05  2.50e-04  1.71e-04     2.0
    9    -8853.1383304250557558    -2.48e-07  4.47e-06  9.60e-05  5.25e-05     1.7
   10    -8853.1383304505470733    -2.55e-08  1.84e-06  2.44e-05  1.43e-05     1.4
   11    -8853.1383304548508022    -4.30e-09  4.80e-07  1.02e-05  3.87e-06     1.3
                 **** Energy Check signals convergence ****

               *****************************************************
               *                     SUCCESS                       *
               *           SCF CONVERGED AFTER  11 CYCLES          *
               *****************************************************

             **** ENERGY FILE WAS UPDATED (start.en.tmp) ****

----------------
TOTAL SCF ENERGY
----------------

Total Energy       :      -8853.13833045440697 Eh         -240906.14140 eV

Components:
Nuclear Repulsion  :        -79.14485304632909 Eh           -2153.64094 eV
Electronic Energy  :      -8773.99347740807752 Eh         -238752.50046 eV
One Electron Energy:     -11904.88908661052665 Eh         -323948.50127 eV
Two Electron Energy:       3130.89560920244912 Eh           85196.00081 eV

Virial components:
Potential Energy   :     -19585.16505885151128 Eh         -532939.43537 eV
Kinetic Energy     :      10732.02672839710431 Eh          292033.29397 eV
Virial Ratio       :          1.82492697367487

---------------
SCF CONVERGENCE
---------------

  Last Energy change         ...    4.3037e-09  Tolerance :   1.0000e-08
  Last MAX-Density change    ...    1.0242e-05  Tolerance :   1.0000e-07
  Last RMS-Density change    ...    4.8004e-07  Tolerance :   5.0000e-09
  Last Orbital Gradient      ...    3.8695e-06  Tolerance :   1.0000e-05
  Last Orbital Rotation      ...    2.6461e-06  Tolerance :   1.0000e-05


----------------
ORBITAL ENERGIES
----------------

  NO   OCC          E(Eh)            E(eV) 
   0   2.0000   -1492.385868    -40609.8840 
   1   2.0000    -243.299513     -6620.5163 
   2   2.0000    -218.000402     -5932.0925 
   3   2.0000    -218.000402     -5932.0925 
   4   2.0000    -218.000363     -5932.0915 
   5   2.0000     -54.350667     -1478.9568 
   6   2.0000     -46.074389     -1253.7479 
   7   2.0000     -46.073204     -1253.7156 
   8   2.0000     -46.073204     -1253.7156 
   9   2.0000     -34.179883      -930.0819 
  10   2.0000     -34.179629      -930.0750 
  11   2.0000     -34.179629      -930.0750 
  12   2.0000     -34.178799      -930.0524 
  13   2.0000     -34.178763      -930.0514 
  14   2.0000     -11.916741      -324.2710 
  15   2.0000      -9.088052      -247.2985 
  16   2.0000      -9.085724      -247.2351 
  17   2.0000      -9.085724      -247.2351 
  18   2.0000      -4.854974      -132.1105 
  19   2.0000      -4.854178      -132.0889 
  20   2.0000      -4.854178      -132.0889 
  21   2.0000      -4.851677      -132.0209 
  22   2.0000      -4.851466      -132.0151 
  23   2.0000      -1.880724       -51.1771 
  24   2.0000      -1.045675       -28.4543 
  25   2.0000      -1.012552       -27.5529 
  26   2.0000      -1.012552       -27.5529 
  27   0.0000       0.215797         5.8721 
  28   0.0000       0.216999         5.9048 
  29   0.0000       0.216999         5.9048 
  30   0.0000       0.219912         5.9841 
  31   0.0000       0.221676         6.0321 
  32   0.0000       0.228992         6.2312 
  33   0.0000       0.228992         6.2312 
  34   0.0000       0.281814         7.6686 
  35   0.0000       0.312711         8.5093 
  36   0.0000       0.312711         8.5093 
  37   0.0000       0.356424         9.6988 
*Only the first 10 virtual orbitals were printed.

                    ********************************
                    * MULLIKEN POPULATION ANALYSIS *
                    ********************************

-----------------------
MULLIKEN ATOMIC CHARGES
-----------------------
   0 Ce:    4.000000
   1 Q :   -2.000000
   2 Q :   -2.000000
   3 Q :   -2.000000
   4 Q :   -2.000000
Sum of atomic charges:   -4.0000000

--------------------------------
MULLIKEN REDUCED ORBITAL CHARGES
--------------------------------
  0 Ces       :     9.999590  s :     9.999590
      pz      :     7.999224  p :    23.997542
      px      :     7.999159
      py      :     7.999159
      dz2     :     4.000409  d :    20.000408
      dxz     :     4.000000
      dyz     :     4.000000
      dx2y2   :     4.000000
      dxy     :     4.000000
      f0      :     0.000776  f :     0.002458
      f+1     :     0.000799
      f-1     :     0.000799
      f+2     :     0.000000
      f-2     :     0.000000
      f+3     :     0.000042
      f-3     :     0.000042
      g0      :     0.000001  g :     0.000003
      g+1     :     0.000000
      g-1     :     0.000000
      g+2     :     0.000000
      g-2     :     0.000000
      g+3     :     0.000000
      g-3     :     0.000000
      g+4     :     0.000001
      g-4     :     0.000000
      h0      :     0.000000  h :     0.000000
      h+1     :     0.000000
      h-1     :     0.000000
      h+2     :     0.000000
      h-2     :     0.000000
      h+3     :     0.000000
      h-3     :     0.000000
      h+4     :     0.000000
      h-4     :     0.000000
      h+5     :     0.000000
      h-5     :     0.000000

  1 Q 

  2 Q 

  3 Q 

  4 Q 


-------------------------------------------
MULLIKEN REDUCED ORBITAL POPULATIONS PER MO
--------------------------------------------
THRESHOLD FOR PRINTING IS 0.1%%
                      0         1         2         3         4         5   
                 -1492.38587 -243.29951 -218.00040 -218.00040 -218.00036 -54.35067
                   2.00000   2.00000   2.00000   2.00000   2.00000   2.00000
                  --------  --------  --------  --------  --------  --------
 0 Ce s             100.0     100.0       0.0       0.0       0.0     100.0
 0 Ce pz              0.0       0.0       0.0       0.0     100.0       0.0
 0 Ce px              0.0       0.0      95.8       4.2       0.0       0.0
 0 Ce py              0.0       0.0       4.2      95.8       0.0       0.0

                      6         7         8         9        10        11   
                 -46.07439 -46.07320 -46.07320 -34.17988 -34.17963 -34.17963
                   2.00000   2.00000   2.00000   2.00000   2.00000   2.00000
                  --------  --------  --------  --------  --------  --------
 0 Ce pz            100.0       0.0       0.0       0.0       0.0       0.0
 0 Ce px              0.0      23.2      76.8       0.0       0.0       0.0
 0 Ce py              0.0      76.8      23.2       0.0       0.0       0.0
 0 Ce dz2             0.0       0.0       0.0     100.0       0.0       0.0
 0 Ce dxz             0.0       0.0       0.0       0.0      15.0      85.0
 0 Ce dyz             0.0       0.0       0.0       0.0      85.0      15.0

                     12        13        14        15        16        17   
                 -34.17880 -34.17876 -11.91674  -9.08805  -9.08572  -9.08572
                   2.00000   2.00000   2.00000   2.00000   2.00000   2.00000
                  --------  --------  --------  --------  --------  --------
 0 Ce s               0.0       0.0     100.0       0.0       0.0       0.0
 0 Ce pz              0.0       0.0       0.0     100.0       0.0       0.0
 0 Ce px              0.0       0.0       0.0       0.0     100.0       0.0
 0 Ce py              0.0       0.0       0.0       0.0       0.0     100.0
 0 Ce dx2y2           0.0     100.0       0.0       0.0       0.0       0.0
 0 Ce dxy           100.0       0.0       0.0       0.0       0.0       0.0

                     18        19        20        21        22        23   
                  -4.85497  -4.85418  -4.85418  -4.85168  -4.85147  -1.88072
                   2.00000   2.00000   2.00000   2.00000   2.00000   2.00000
                  --------  --------  --------  --------  --------  --------
 0 Ce s               0.0       0.0       0.0       0.0       0.0     100.0
 0 Ce dz2           100.0       0.0       0.0       0.0       0.0       0.0
 0 Ce dxz             0.0      49.8      50.2       0.0       0.0       0.0
 0 Ce dyz             0.0      50.2      49.8       0.0       0.0       0.0
 0 Ce dx2y2           0.0       0.0       0.0       0.0     100.0       0.0
 0 Ce dxy             0.0       0.0       0.0     100.0       0.0       0.0

                     24        25        26        27        28        29   
                  -1.04568  -1.01255  -1.01255   0.21580   0.21700   0.21700
                   2.00000   2.00000   2.00000   0.00000   0.00000   0.00000
                  --------  --------  --------  --------  --------  --------
 0 Ce pz            100.0       0.0       0.0       0.1       0.0       0.0
 0 Ce px              0.0      53.8      46.2       0.0       0.0       0.1
 0 Ce py              0.0      46.2      53.8       0.0       0.1       0.0
 0 Ce f0              0.0       0.0       0.0      99.9       0.0       0.0
 0 Ce f+1             0.0       0.0       0.0       0.0       0.0      99.4
 0 Ce f-1             0.0       0.0       0.0       0.0      99.4       0.0
 0 Ce f+3             0.0       0.0       0.0       0.0       0.0       0.5
 0 Ce f-3             0.0       0.0       0.0       0.0       0.5       0.0

                     30        31        32        33        34        35   
                   0.21991   0.22168   0.22899   0.22899   0.28181   0.31271
                   0.00000   0.00000   0.00000   0.00000   0.00000   0.00000
                  --------  --------  --------  --------  --------  --------
 0 Ce s               0.0       0.0       0.0       0.0      14.7       0.0
 0 Ce dz2             0.0       0.0       0.0       0.0      85.3       0.0
 0 Ce dxz             0.0       0.0       0.0       0.0       0.0       6.0
 0 Ce dyz             0.0       0.0       0.0       0.0       0.0      94.0
 0 Ce f+1             0.0       0.0       0.5       0.0       0.0       0.0
 0 Ce f-1             0.0       0.0       0.0       0.5       0.0       0.0
 0 Ce f+2             0.0     100.0       0.0       0.0       0.0       0.0
 0 Ce f-2           100.0       0.0       0.0       0.0       0.0       0.0
 0 Ce f+3             0.0       0.0      99.5       0.0       0.0       0.0
 0 Ce f-3             0.0       0.0       0.0      99.5       0.0       0.0

                     36        37        38        39        40        41   
                   0.31271   0.35642   0.38464   0.39892   0.42682   0.48926
                   0.00000   0.00000   0.00000   0.00000   0.00000   0.00000
                  --------  --------  --------  --------  --------  --------
 0 Ce s               0.0       0.0       0.0       0.0      63.2       0.0
 0 Ce pz              0.0       0.0       0.0      99.9       0.0      99.1
 0 Ce dz2             0.0       0.0       0.0       0.0      36.8       0.0
 0 Ce dxz            94.0       0.0       0.0       0.0       0.0       0.0
 0 Ce dyz             6.0       0.0       0.0       0.0       0.0       0.0
 0 Ce dx2y2           0.0       0.0     100.0       0.0       0.0       0.0
 0 Ce dxy             0.0     100.0       0.0       0.0       0.0       0.0
 0 Ce f0              0.0       0.0       0.0       0.1       0.0       0.9

                     42        43        44        45        46        47   
                   0.49294   0.49294   0.49927   0.59115   0.59115   0.65877
                   0.00000   0.00000   0.00000   0.00000   0.00000   0.00000
                  --------  --------  --------  --------  --------  --------
 0 Ce s               0.0       0.0      84.6       0.0       0.0      46.1
 0 Ce px             41.2      58.8       0.0       0.0       0.0       0.0
 0 Ce py             58.8      41.2       0.0       0.0       0.0       0.0
 0 Ce dz2             0.0       0.0      15.4       0.0       0.0      53.9
 0 Ce dxz             0.0       0.0       0.0      80.2      19.8       0.0
 0 Ce dyz             0.0       0.0       0.0      19.8      80.2       0.0

                     48        49        50        51        52        53   
                   0.68328   0.68958   0.68958   0.75623   0.84122   0.87314
                   0.00000   0.00000   0.00000   0.00000   0.00000   0.00000
                  --------  --------  --------  --------  --------  --------
 0 Ce s               0.0       0.0       0.0       0.0      41.3       0.0
 0 Ce pz              0.0       0.0       0.0      98.4       0.0       0.0
 0 Ce px              0.0      50.6      44.2       0.0       0.0       0.0
 0 Ce py              0.0      44.2      50.6       0.0       0.0       0.0
 0 Ce dz2             0.0       0.0       0.0       0.0      58.7       0.0
 0 Ce dx2y2           0.0       0.0       0.0       0.0       0.0     100.0
 0 Ce dxy           100.0       0.0       0.0       0.0       0.0       0.0
 0 Ce f0              0.0       0.0       0.0       1.6       0.0       0.0
 0 Ce f+1             0.0       2.5       2.2       0.0       0.0       0.0
 0 Ce f-1             0.0       2.2       2.5       0.0       0.0       0.0
 0 Ce f+3             0.0       0.3       0.3       0.0       0.0       0.0
 0 Ce f-3             0.0       0.3       0.3       0.0       0.0       0.0

                     54        55        56        57        58        59   
                   0.87531   0.87531   0.96781   0.96781   0.96931   1.03801
                   0.00000   0.00000   0.00000   0.00000   0.00000   0.00000
                  --------  --------  --------  --------  --------  --------
 0 Ce s               0.0       0.0       0.0       0.0       0.0      48.5
 0 Ce px              0.0       0.0      83.4      13.1       0.0       0.0
 0 Ce py              0.0       0.0      13.1      83.4       0.0       0.0
 0 Ce dz2             0.0       0.0       0.0       0.0       0.0      51.5
 0 Ce dxz            36.5      63.5       0.0       0.0       0.0       0.0
 0 Ce dyz            63.5      36.5       0.0       0.0       0.0       0.0
 0 Ce dxy             0.0       0.0       0.0       0.0     100.0       0.0
 0 Ce f+1             0.0       0.0       3.1       0.5       0.0       0.0
 0 Ce f-1             0.0       0.0       0.5       3.1       0.0       0.0

                     60        61        62        63        64        65   
                   1.04474   1.05351   1.06128   1.06128   1.08274   1.15651
                   0.00000   0.00000   0.00000   0.00000   0.00000   0.00000
                  --------  --------  --------  --------  --------  --------
 0 Ce pz              2.5       0.0       0.0       0.0       0.0       0.0
 0 Ce px              0.0       0.0       6.0       1.0       0.0       0.0
 0 Ce py              0.0       0.0       1.0       6.0       0.0       0.0
 0 Ce dx2y2           0.0       0.0       0.0       0.0       0.0     100.0
 0 Ce f0             97.5       0.0       0.0       0.0       0.0       0.0
 0 Ce f+1             0.0       0.0      73.3      11.8       0.0       0.0
 0 Ce f-1             0.0       0.0      11.8      73.3       0.0       0.0
 0 Ce f+2             0.0       0.0       0.0       0.0     100.0       0.0
 0 Ce f-2             0.0     100.0       0.0       0.0       0.0       0.0
 0 Ce f+3             0.0       0.0       6.8       1.1       0.0       0.0
 0 Ce f-3             0.0       0.0       1.1       6.8       0.0       0.0

                     66        67        68        69        70        71   
                   1.16369   1.16369   1.71244   1.71244   1.73603   1.73765
                   0.00000   0.00000   0.00000   0.00000   0.00000   0.00000
                  --------  --------  --------  --------  --------  --------
 0 Ce s               0.0       0.0       0.0       0.0       4.0       0.0
 0 Ce pz              0.0       0.0       0.0       0.0       0.0      99.8
 0 Ce px              1.9       0.0       0.0       0.0       0.0       0.0
 0 Ce py              0.0       1.9       0.0       0.0       0.0       0.0
 0 Ce dz2             0.0       0.0       0.0       0.0      96.0       0.0
 0 Ce dxz             0.0       0.0      34.2      65.8       0.0       0.0
 0 Ce dyz             0.0       0.0      65.8      34.2       0.0       0.0
 0 Ce f0              0.0       0.0       0.0       0.0       0.0       0.2
 0 Ce f+1             6.7       0.0       0.0       0.0       0.0       0.0
 0 Ce f-1             0.0       6.7       0.0       0.0       0.0       0.0
 0 Ce f+3            91.4       0.0       0.0       0.0       0.0       0.0
 0 Ce f-3             0.0      91.4       0.0       0.0       0.0       0.0

                     72        73        74        75        76        77   
                   1.77347   1.84601   1.84601   1.89556   1.97797   2.36498
                   0.00000   0.00000   0.00000   0.00000   0.00000   0.00000
                  --------  --------  --------  --------  --------  --------
 0 Ce s               0.0       0.0       0.0       0.0      97.6       0.0
 0 Ce pz              0.0       0.0       0.0       0.0       0.0       0.2
 0 Ce px              0.0      13.6      85.8       0.0       0.0       0.0
 0 Ce py              0.0      85.8      13.6       0.0       0.0       0.0
 0 Ce dz2             0.0       0.0       0.0       0.0       2.4       0.0
 0 Ce dx2y2           0.0       0.0       0.0     100.0       0.0       0.0
 0 Ce dxy           100.0       0.0       0.0       0.0       0.0       0.0
 0 Ce f0              0.0       0.0       0.0       0.0       0.0      99.8
 0 Ce f+1             0.0       0.1       0.4       0.0       0.0       0.0
 0 Ce f-1             0.0       0.4       0.1       0.0       0.0       0.0
 0 Ce f+3             0.0       0.0       0.1       0.0       0.0       0.0
 0 Ce f-3             0.0       0.1       0.0       0.0       0.0       0.0

                     78        79        80        81        82        83   
                   2.37146   2.37146   2.37418   2.38813   2.43005   2.43005
                   0.00000   0.00000   0.00000   0.00000   0.00000   0.00000
                  --------  --------  --------  --------  --------  --------
 0 Ce px              0.1       0.3       0.0       0.0       0.2       0.0
 0 Ce py              0.3       0.1       0.0       0.0       0.0       0.2
 0 Ce f+1            13.6      81.4       0.0       0.0       4.2       0.3
 0 Ce f-1            81.4      13.6       0.0       0.0       0.3       4.2
 0 Ce f+2             0.0       0.0       0.0     100.0       0.0       0.0
 0 Ce f-2             0.0       0.0     100.0       0.0       0.0       0.0
 0 Ce f+3             0.7       4.0       0.0       0.0      88.3       6.9
 0 Ce f-3             4.0       0.7       0.0       0.0       6.9      88.3

                     84        85        86        87        88        89   
                   3.34057   3.34174   3.34174   3.34448   3.34703   3.35299
                   0.00000   0.00000   0.00000   0.00000   0.00000   0.00000
                  --------  --------  --------  --------  --------  --------
 0 Ce g0             99.8       0.0       0.0       0.0       0.0       0.0
 0 Ce g+1             0.0      92.8       6.1       0.0       0.0       0.8
 0 Ce g-1             0.0       6.1      92.8       0.0       0.0       0.3
 0 Ce g+2             0.0       0.0       0.0       0.0     100.0       0.0
 0 Ce g-2             0.0       0.0       0.0     100.0       0.0       0.0
 0 Ce g+3             0.0       1.0       0.1       0.0       0.0      75.4
 0 Ce g-3             0.0       0.1       1.0       0.0       0.0      23.6
 0 Ce g+4             0.2       0.0       0.0       0.0       0.0       0.0

                     90        91        92        93        94        95   
                   3.35299   3.36494   3.36506   4.70152   4.70152   4.70251
                   0.00000   0.00000   0.00000   0.00000   0.00000   0.00000
                  --------  --------  --------  --------  --------  --------
 0 Ce dz2             0.0       0.0       0.0       0.0       0.0     100.0
 0 Ce dxz             0.0       0.0       0.0      41.2      58.8       0.0
 0 Ce dyz             0.0       0.0       0.0      58.8      41.2       0.0
 0 Ce g0              0.0       0.0       0.2       0.0       0.0       0.0
 0 Ce g+1             0.3       0.0       0.0       0.0       0.0       0.0
 0 Ce g-1             0.8       0.0       0.0       0.0       0.0       0.0
 0 Ce g+3            23.6       0.0       0.0       0.0       0.0       0.0
 0 Ce g-3            75.4       0.0       0.0       0.0       0.0       0.0
 0 Ce g+4             0.0       0.0      99.8       0.0       0.0       0.0
 0 Ce g-4             0.0     100.0       0.0       0.0       0.0       0.0

                     96        97        98        99       100       101   
                   4.72427   4.74884   6.29778   6.29965   6.29965   6.30266
                   0.00000   0.00000   0.00000   0.00000   0.00000   0.00000
                  --------  --------  --------  --------  --------  --------
 0 Ce pz              0.0       0.0       0.3       0.0       0.0       0.0
 0 Ce px              0.0       0.0       0.0       0.3       0.0       0.0
 0 Ce py              0.0       0.0       0.0       0.0       0.3       0.0
 0 Ce dx2y2           0.0     100.0       0.0       0.0       0.0       0.0
 0 Ce dxy           100.0       0.0       0.0       0.0       0.0       0.0
 0 Ce f0              0.0       0.0      99.7       0.0       0.0       0.0
 0 Ce f+1             0.0       0.0       0.0      97.8       0.2       0.0
 0 Ce f-1             0.0       0.0       0.0       0.2      97.8       0.0
 0 Ce f-2             0.0       0.0       0.0       0.0       0.0     100.0
 0 Ce f+3             0.0       0.0       0.0       1.7       0.0       0.0
 0 Ce f-3             0.0       0.0       0.0       0.0       1.7       0.0

                    102       103       104       105       106       107   
                   6.30644   6.31895   6.31895   6.33475   6.36283   6.36283
                   0.00000   0.00000   0.00000   0.00000   0.00000   0.00000
                  --------  --------  --------  --------  --------  --------
 0 Ce pz              0.0       0.0       0.0      99.7       0.0       0.0
 0 Ce px              0.0       0.0       0.5       0.0      61.6      37.7
 0 Ce py              0.0       0.5       0.0       0.0      37.7      61.6
 0 Ce f0              0.0       0.0       0.0       0.3       0.0       0.0
 0 Ce f+1             0.0       0.0       1.6       0.0       0.2       0.1
 0 Ce f-1             0.0       1.6       0.0       0.0       0.1       0.2
 0 Ce f+2           100.0       0.0       0.0       0.0       0.0       0.0
 0 Ce f+3             0.0       0.0      98.0       0.0       0.2       0.1
 0 Ce f-3             0.0      98.0       0.0       0.0       0.1       0.2

                    108       109       110       111       112       113   
                   7.92545  12.86594  12.86621  12.86621  12.86692  12.86713
                   0.00000   0.00000   0.00000   0.00000   0.00000   0.00000
                  --------  --------  --------  --------  --------  --------
 0 Ce s             100.0       0.0       0.0       0.0       0.0       0.0
 0 Ce g0              0.0     100.0       0.0       0.0       0.0       0.0
 0 Ce g+1             0.0       0.0      11.9      87.9       0.0       0.0
 0 Ce g-1             0.0       0.0      87.9      11.9       0.0       0.0
 0 Ce g+2             0.0       0.0       0.0       0.0       0.0     100.0
 0 Ce g-2             0.0       0.0       0.0       0.0     100.0       0.0
 0 Ce g+3             0.0       0.0       0.0       0.2       0.0       0.0
 0 Ce g-3             0.0       0.0       0.2       0.0       0.0       0.0

                    114       115       116       117       118       119   
                  12.86844  12.86844  12.87056  12.87056  15.76779  15.76844
                   0.00000   0.00000   0.00000   0.00000   0.00000   0.00000
                  --------  --------  --------  --------  --------  --------
 0 Ce dz2             0.0       0.0       0.0       0.0     100.0       0.0
 0 Ce dxz             0.0       0.0       0.0       0.0       0.0      49.4
 0 Ce dyz             0.0       0.0       0.0       0.0       0.0      50.6
 0 Ce g+1             0.1       0.1       0.0       0.0       0.0       0.0
 0 Ce g-1             0.1       0.1       0.0       0.0       0.0       0.0
 0 Ce g+3            31.6      68.2       0.0       0.0       0.0       0.0
 0 Ce g-3            68.2      31.6       0.0       0.0       0.0       0.0
 0 Ce g+4             0.0       0.0       0.0     100.0       0.0       0.0
 0 Ce g-4             0.0       0.0     100.0       0.0       0.0       0.0

                    120       121       122       123       124       125   
                  15.76844  15.77446  15.77853  15.96581  15.96597  15.96597
                   0.00000   0.00000   0.00000   0.00000   0.00000   0.00000
                  --------  --------  --------  --------  --------  --------
 0 Ce dxz            50.6       0.0       0.0       0.0       0.0       0.0
 0 Ce dyz            49.4       0.0       0.0       0.0       0.0       0.0
 0 Ce dx2y2           0.0       0.0     100.0       0.0       0.0       0.0
 0 Ce dxy             0.0     100.0       0.0       0.0       0.0       0.0
 0 Ce h0              0.0       0.0       0.0     100.0       0.0       0.0
 0 Ce h+1             0.0       0.0       0.0       0.0      11.6      88.2
 0 Ce h-1             0.0       0.0       0.0       0.0      88.2      11.6
 0 Ce h+3             0.0       0.0       0.0       0.0       0.0       0.1
 0 Ce h-3             0.0       0.0       0.0       0.0       0.1       0.0

                    126       127       128       129       130       131   
                  15.96640  15.96650  15.96726  15.96726  15.96841  15.96841
                   0.00000   0.00000   0.00000   0.00000   0.00000   0.00000
                  --------  --------  --------  --------  --------  --------
 0 Ce h+1             0.0       0.0       0.0       0.1       0.0       0.0
 0 Ce h-1             0.0       0.0       0.1       0.0       0.0       0.0
 0 Ce h+2             0.0     100.0       0.0       0.0       0.0       0.0
 0 Ce h-2           100.0       0.0       0.0       0.0       0.0       0.0
 0 Ce h+3             0.0       0.0       8.6      91.2       0.0       0.0
 0 Ce h-3             0.0       0.0      91.2       8.6       0.0       0.0
 0 Ce h+4             0.0       0.0       0.0       0.0       0.0     100.0
 0 Ce h-4             0.0       0.0       0.0       0.0     100.0       0.0

                    132       133       134       135       136       137   
                  15.96994  15.96994  30.00215  30.00757  30.00757  42.16908
                   0.00000   0.00000   0.00000   0.00000   0.00000   0.00000
                  --------  --------  --------  --------  --------  --------
 0 Ce s               0.0       0.0       0.0       0.0       0.0     100.0
 0 Ce pz              0.0       0.0     100.0       0.0       0.0       0.0
 0 Ce px              0.0       0.0       0.0      96.1       3.9       0.0
 0 Ce py              0.0       0.0       0.0       3.9      96.1       0.0
 0 Ce h+5            43.6      56.4       0.0       0.0       0.0       0.0
 0 Ce h-5            56.4      43.6       0.0       0.0       0.0       0.0

                    138       139       140       141       142       143   
                  44.68203  44.68217  44.68217  44.68255  44.68264  44.68332
                   0.00000   0.00000   0.00000   0.00000   0.00000   0.00000
                  --------  --------  --------  --------  --------  --------
 0 Ce h0            100.0       0.0       0.0       0.0       0.0       0.0
 0 Ce h+1             0.0      63.4      36.5       0.0       0.0       0.0
 0 Ce h-1             0.0      36.5      63.4       0.0       0.0       0.1
 0 Ce h+2             0.0       0.0       0.0       0.0     100.0       0.0
 0 Ce h-2             0.0       0.0       0.0     100.0       0.0       0.0
 0 Ce h+3             0.0       0.1       0.0       0.0       0.0      18.8
 0 Ce h-3             0.0       0.0       0.1       0.0       0.0      81.0

                    144       145       146       147       148       149   
                  44.68332  44.68436  44.68436  44.68576  44.68576  57.83070
                   0.00000   0.00000   0.00000   0.00000   0.00000   0.00000
                  --------  --------  --------  --------  --------  --------
 0 Ce dz2             0.0       0.0       0.0       0.0       0.0     100.0
 0 Ce h+1             0.1       0.0       0.0       0.0       0.0       0.0
 0 Ce h+3            81.0       0.0       0.0       0.0       0.0       0.0
 0 Ce h-3            18.8       0.0       0.0       0.0       0.0       0.0
 0 Ce h+4             0.0       0.0     100.0       0.0       0.0       0.0
 0 Ce h-4             0.0     100.0       0.0       0.0       0.0       0.0
 0 Ce h+5             0.0       0.0       0.0       8.0      92.0       0.0
 0 Ce h-5             0.0       0.0       0.0      92.0       8.0       0.0

                    150       151       152       153       154       155   
                  57.83111  57.83111  57.83302  57.83369  66.24000  66.24013
                   0.00000   0.00000   0.00000   0.00000   0.00000   0.00000
                  --------  --------  --------  --------  --------  --------
 0 Ce dxz            88.8      11.2       0.0       0.0       0.0       0.0
 0 Ce dyz            11.2      88.8       0.0       0.0       0.0       0.0
 0 Ce dx2y2           0.0       0.0       0.0     100.0       0.0       0.0
 0 Ce dxy             0.0       0.0     100.0       0.0       0.0       0.0
 0 Ce g0              0.0       0.0       0.0       0.0     100.0       0.0
 0 Ce g+1             0.0       0.0       0.0       0.0       0.0       7.5
 0 Ce g-1             0.0       0.0       0.0       0.0       0.0      92.5

                    156       157       158       159       160       161   
                  66.24013  66.24052  66.24058  66.24128  66.24128  66.24235
                   0.00000   0.00000   0.00000   0.00000   0.00000   0.00000
                  --------  --------  --------  --------  --------  --------
 0 Ce g+1            92.5       0.0       0.0       0.0       0.0       0.0
 0 Ce g-1             7.5       0.0       0.0       0.0       0.0       0.0
 0 Ce g+2             0.0       0.0     100.0       0.0       0.0       0.0
 0 Ce g-2             0.0     100.0       0.0       0.0       0.0       0.0
 0 Ce g+3             0.0       0.0       0.0      51.3      48.7       0.0
 0 Ce g-3             0.0       0.0       0.0      48.7      51.3       0.0
 0 Ce g-4             0.0       0.0       0.0       0.0       0.0     100.0

                    162       163       164       165       166       167   
                  66.24235 139.76060 139.76200 139.76200 208.99610 602.94435
                   0.00000   0.00000   0.00000   0.00000   0.00000   0.00000
                  --------  --------  --------  --------  --------  --------
 0 Ce s               0.0       0.0       0.0       0.0     100.0       0.0
 0 Ce pz              0.0     100.0       0.0       0.0       0.0     100.0
 0 Ce px              0.0       0.0      99.9       0.1       0.0       0.0
 0 Ce py              0.0       0.0       0.1      99.9       0.0       0.0
 0 Ce g+4           100.0       0.0       0.0       0.0       0.0       0.0

                    168       169       170       171       172       173   
                 602.94469 602.94469 817.66910 2550.58792 6577.93209 14634.25032
                   0.00000   0.00000   0.00000   0.00000   0.00000   0.00000
                  --------  --------  --------  --------  --------  --------
 0 Ce s               0.0       0.0     100.0     100.0     100.0     100.0
 0 Ce px             98.9       1.1       0.0       0.0       0.0       0.0
 0 Ce py              1.1      98.9       0.0       0.0       0.0       0.0

                    174       175   
                 29191.45443 66329.56421
                   0.00000   0.00000
                  --------  --------
 0 Ce s             100.0     100.0


                     *******************************
                     * LOEWDIN POPULATION ANALYSIS *
                     *******************************

----------------------
LOEWDIN ATOMIC CHARGES
----------------------
   0 Ce:    4.000000
   1 Q :   -2.000000
   2 Q :   -2.000000
   3 Q :   -2.000000
   4 Q :   -2.000000

-------------------------------
LOEWDIN REDUCED ORBITAL CHARGES
-------------------------------
  0 Ces       :     9.999590  s :     9.999590
      pz      :     7.999224  p :    23.997542
      px      :     7.999159
      py      :     7.999159
      dz2     :     4.000409  d :    20.000408
      dxz     :     4.000000
      dyz     :     4.000000
      dx2y2   :     4.000000
      dxy     :     4.000000
      f0      :     0.000776  f :     0.002458
      f+1     :     0.000799
      f-1     :     0.000799
      f+2     :     0.000000
      f-2     :     0.000000
      f+3     :     0.000042
      f-3     :     0.000042
      g0      :     0.000001  g :     0.000003
      g+1     :     0.000000
      g-1     :     0.000000
      g+2     :     0.000000
      g-2     :     0.000000
      g+3     :     0.000000
      g-3     :     0.000000
      g+4     :     0.000001
      g-4     :     0.000000
      h0      :     0.000000  h :     0.000000
      h+1     :     0.000000
      h-1     :     0.000000
      h+2     :     0.000000
      h-2     :     0.000000
      h+3     :     0.000000
      h-3     :     0.000000
      h+4     :     0.000000
      h-4     :     0.000000
      h+5     :     0.000000
      h-5     :     0.000000

  1 Q 

  2 Q 

  3 Q 

  4 Q 



                      *****************************
                      * MAYER POPULATION ANALYSIS *
                      *****************************

  NA   - Mulliken gross atomic population
  ZA   - Total nuclear charge
  QA   - Mulliken gross atomic charge
  VA   - Mayer's total valence
  BVA  - Mayer's bonded valence
  FA   - Mayer's free valence

  ATOM       NA         ZA         QA         VA         BVA        FA
  0 Ce    54.0000    58.0000     4.0000     0.0000     0.0000     0.0000
  1 Q      0.0000    -2.0000    -2.0000     0.0000     0.0000     0.0000
  2 Q      0.0000    -2.0000    -2.0000     0.0000     0.0000     0.0000
  3 Q      0.0000    -2.0000    -2.0000     0.0000     0.0000     0.0000
  4 Q      0.0000    -2.0000    -2.0000     0.0000     0.0000     0.0000

  Mayer bond orders larger than 0.100000
  => no bond orders to print

-------
TIMINGS
-------

Total SCF time: 0 days 0 hours 0 min 23 sec 

Total time                  ....      23.243 sec
Sum of individual times     ....      22.228 sec  ( 95.6%)

SCF preparation             ....       0.071 sec  (  0.3%)
Fock matrix formation       ....      22.060 sec  ( 94.9%)
  Startup                   ....       0.002 sec  (  0.0% of F)
  Coulomb+Exchange Fock     ....      23.052 sec  (104.5% of F)
Diagonalization             ....       0.000 sec  (  0.0%)
Density matrix formation    ....       0.012 sec  (  0.1%)
Total Energy calculation    ....       0.007 sec  (  0.0%)
Population analysis         ....       0.009 sec  (  0.0%)
Orbital Transformation      ....       0.004 sec  (  0.0%)
Orbital Orthonormalization  ....       0.000 sec  (  0.0%)
DIIS solution               ....       0.035 sec  (  0.2%)
SOSCF solution              ....       0.029 sec  (  0.1%)
Finished LeanSCF after  23.2 sec

Maximum memory used throughout the entire LEANSCF-calculation: 38.4 MB


           ************************************************************
           *        Program running with 4 parallel MPI-processes     *
           *              working on a common directory               *
           ************************************************************

------------------------------------------------------------------------------
                         ORCA PROPERTY INTEGRAL CALCULATIONS
------------------------------------------------------------------------------

GBWName                                   ... start.gbw
Number of atoms                           ...      5
Number of basis functions                 ...    176
Max core memory                           ...   2000 MB

Dipole integrals                          ... YES(DKH)
Quadrupole integrals                      ...  NO
Linear momentum integrals                 ...  NO
Angular momentum integrals                ...  NO
Higher moments length integrals           ...  NO
Higher moments velocity integrals         ...  NO
Kinetic energy integrals                  ...  NO
GIAO right hand sides                     ...  NO
GIAO dipole derivative integrals          ...  NO
SOC integrals                             ...  NO
EPR diamagnetic integrals (GIAO)          ...  NO
EPR gauge integrals                       ...  NO
Field gradient integrals                  ...  NO (   0 nuclei)
Spin-dipole/Fermi contact integrals       ...  NO (   0 nuclei)
Contact density integrals                 ...  NO (   0 nuclei)
Nucleus-orbit integrals                   ...  NO (   0 nuclei)
Geometric perturbations                   ...  NO (   5 nuclei)

DKH transformation order                  ... Second
Note: picture-change corrections are only included
      for the integrals annotated with "YES(DKH)"!

Choice of electric origin   ... Center of mass
Position of electric origin ... (  0.0000,  0.0000,  0.0000) 
Choice of magnetic origin   ... GIAO
Position of magnetic origin ... (  0.0000,  0.0000,  0.0000) 

Calculating integrals                     ... Electric Dipole (Length)     done (  0.1 sec)

Property integrals calculated in   0.1 sec

Maximum memory used throughout the entire PROPINT-calculation: 27.7 MB

-------------------------   --------------------
FINAL SINGLE POINT ENERGY     -8853.138330454407
-------------------------   --------------------



           ************************************************************
           *        Program running with 4 parallel MPI-processes     *
           *              working on a common directory               *
           ************************************************************

------------------------------------------------------------------------------
                              ORCA PROPERTY CALCULATIONS
------------------------------------------------------------------------------

GBWName                                 ... start.gbw
Number of atoms                         ...      5
Number of basis functions               ...    176
Max core memory                         ...   2000 MB

Electric properties:
Dipole moment                           ... YES(DKH)
Quadrupole moment                       ...  NO
Static polarizability (Dipole/Dipole)   ...  NO
Static polarizability (Dipole/Quad.)    ...  NO
Static polarizability (Quad./Quad.)     ...  NO
Static polarizability (Velocity)        ...  NO
Static hyperpolarizability              ...  NO

Atomic electric properties:
Dipole moment                           ...  NO
Quadrupole moment                       ...  NO
Static polarizability                   ...  NO

Choice of electric origin               ... Center of mass
Position of electric origin             ...     0.000000     0.000000     0.000000

General magnetic properties:
Magnetizability                         ...  NO

EPR properties:
g-Tensor (aka g-matrix)                 ...  NO
Zero-Field splitting spin-orbit         ...  NO
Zero-field splitting spin-spin          ...  NO
Hyperfine couplings                     ...  NO (   0 nuclei)
Quadrupole couplings                    ...  NO (   0 nuclei)
Contact density                         ...  NO (   0 nuclei)

NMR properties:
Chemical shifts                         ...  NO (   0 nuclei)
Spin-rotation constants                 ...  NO (   0 nuclei)
Spin-spin couplings                     ...  NO (   0 nuclei,    0 pairs)

Choice of magnetic origin               ... GIAO
Position of magnetic origin             ...     0.000000     0.000000     0.000000

Properties with geometric perturbations:
SCF Hessian                             ...  NO
IR spectrum                             ...  NO
VCD spectrum                            ...  NO
X-ray spectroscopy properties:
SCF XES/XAS/RIXS spectra                ...  NO

SCF SOC stabilization energy            ...  NO
Diagonal Born-Oppenheimer correction    ...  NO
DKH transformation order                ... Second
Note: picture-change corrections are only included
      for the properties annotated with "YES(DKH)"!


-------------
DIPOLE MOMENT
-------------

Method             : SCF
Type of density    : Electron Density
Multiplicity       :   1
Irrep              :   0
Energy             : -8853.1383304544069688 Eh
Basis              : AO
                                X                 Y                 Z
Electronic contribution:     -0.000000002      -0.000000001       0.000000000
Nuclear contribution   :      0.000000000       0.000000000       0.000000000
                        -----------------------------------------
Total Dipole Moment    :     -0.000000002      -0.000000001       0.000000000
                        -----------------------------------------
Magnitude (a.u.)       :      0.000000002
Magnitude (Debye)      :      0.000000005



--------------------
Rotational spectrum 
--------------------
 
Rotational constants in cm-1:             0.000000             0.000000             0.000000 
Rotational constants in MHz :             0.000000             0.000000             0.000000 

Dipole components along the rotational axes: 
x,y,z [a.u.] :    -0.000000    -0.000000     0.000000 
x,y,z [Debye]:    -0.000000    -0.000000     0.000000 

 

Dipole moment calculation done in   0.0 sec 

Maximum memory used throughout the entire PROP-calculation: 19.3 MB

--------------------------------
SUGGESTED CITATIONS FOR THIS RUN
--------------------------------

Below you find a list of papers that are relevant to this ORCA run
We neither can nor want to force you to cite these papers, but we appreciate if you do
You receive ORCA, which is the product of decades of hard work by many enthusiastic individuals, for free
The only thing we kindly ask in return is that you cite our papers,
We deeply appreciate it, if you show your appreciation for ORCA by not just citing the generic ORCA reference.

Please note that relegating all ORCA citations to the supporting information does *not* help us.
SI sections are not indexed - citations you put there will not count into any citation statistics
But we need these citations in order to attract the funding resources that allow us to do what we are doing

Therefore, if you are a happy ORCA user, please consider citing a few of the papers listed below in the main body of your paper

In addition to the list printed below, the program has created the file start.bibtex that contains the list in bibtex format
You can import this file easily into all common literature databanks and citation aid programs


List of essential papers. We consider these as the minimum necessary citations

  1. Neese, F.
     Software update: the ORCA program system, version 6.0
     WIRES Comput. Molec. Sci. 2025 15(1), e70019
     doi.org/10.1002/wcms.7019

List of papers to cite with high priority. The work reported in these papers was absolutely
necessary for this run to complete.
Our perspective: the developers of density functionals and basis sets usually get cited in chemistry papers
Good! But without the algorithms to do something with them, the functionals or basis sets would not do anything.
Hence, in our opinion, the algorithm design and method developments papers are equally worthy of getting cited

  1. Neese, F.
     The SHARK Integral Generation and Digestion System
     J. Comp. Chem. 2022 44(3), 381
     doi.org/10.1002/jcc.26942

List of suggested additional citations. These are papers that are important in the 'surrounding' of 
of this run, or papers that preceded the highly important papers. If you like your results we are grateful for a citation.

  1. Neese, F.
     The ORCA program system
     WIRES Comput. Molec. Sci. 2012 2(1), 73-78
     doi.org/10.1002/wcms.81
  2. Neese, F.
     Software update: the ORCA program system, version 4.0
     WIRES Comput. Molec. Sci. 2018 8(1), 1-6
     doi.org/10.1002/wcms.1327
  3. Neese, F.; Wennmohs, F.; Becker, U.; Riplinger, C.
     The ORCA quantum chemistry program package
     J. Chem. Phys. 2020 152(22), 224108
     doi.org/10.1063/5.0004608
  4. Neese, F.
     Software update: The ORCA program system—Version 5.0
     WIRES Comput. Molec. Sci. 2022 12(1), e1606
     doi.org/10.1002/wcms.1606

List of optional additional citations

  1. Neese, F.
     Approximate second-order SCF convergence for spin unrestricted wavefunctions
[...]
           |   0.911715  -0.000000   0.000000 | X:   0.140688 |  -0.000000  -0.000000   1.000000 |
 279.00000 |  -0.000000   0.911715   0.000000 | Y:   0.911715 |   0.565209   0.824948   0.000000 |
           |   0.000000   0.000000   0.140688 | Z:   0.911715 |  -0.824948   0.565209   0.000000 |
-----------|------ x -------- y -------- z ---|---------------|------ x -------- y -------- z ---|
           |   0.912271  -0.000000   0.000000 | X:   0.141125 |  -0.000000  -0.000000   1.000000 |
 280.00000 |  -0.000000   0.912271   0.000000 | Y:   0.912271 |   0.564990   0.825097   0.000000 |
           |   0.000000   0.000000   0.141125 | Z:   0.912271 |  -0.825097   0.564990   0.000000 |
-----------|------ x -------- y -------- z ---|---------------|------ x -------- y -------- z ---|
           |   0.912823  -0.000000   0.000000 | X:   0.141564 |  -0.000000  -0.000000   1.000000 |
 281.00000 |  -0.000000   0.912823   0.000000 | Y:   0.912823 |   0.564771   0.825247   0.000000 |
           |   0.000000   0.000000   0.141564 | Z:   0.912823 |  -0.825247   0.564771   0.000000 |
-----------|------ x -------- y -------- z ---|---------------|------ x -------- y -------- z ---|
           |   0.913371  -0.000000   0.000000 | X:   0.142003 |  -0.000000  -0.000000   1.000000 |
 282.00000 |  -0.000000   0.913371   0.000000 | Y:   0.913371 |   0.564553   0.825397   0.000000 |
           |   0.000000   0.000000   0.142003 | Z:   0.913371 |  -0.825397   0.564553   0.000000 |
-----------|------ x -------- y -------- z ---|---------------|------ x -------- y -------- z ---|
           |   0.913916  -0.000000   0.000000 | X:   0.142443 |  -0.000000  -0.000000   1.000000 |
 283.00000 |  -0.000000   0.913916   0.000000 | Y:   0.913916 |   0.564334   0.825547   0.000000 |
           |   0.000000   0.000000   0.142443 | Z:   0.913916 |  -0.825547   0.564334   0.000000 |
-----------|------ x -------- y -------- z ---|---------------|------ x -------- y -------- z ---|
           |   0.914457  -0.000000   0.000000 | X:   0.142883 |  -0.000000  -0.000000   1.000000 |
 284.00000 |  -0.000000   0.914457   0.000000 | Y:   0.914457 |   0.564115   0.825696   0.000000 |
           |   0.000000   0.000000   0.142883 | Z:   0.914457 |  -0.825696   0.564115   0.000000 |
-----------|------ x -------- y -------- z ---|---------------|------ x -------- y -------- z ---|
           |   0.914995  -0.000000   0.000000 | X:   0.143324 |  -0.000000  -0.000000   1.000000 |
 285.00000 |  -0.000000   0.914995   0.000000 | Y:   0.914995 |   0.563896   0.825846   0.000000 |
           |   0.000000   0.000000   0.143324 | Z:   0.914995 |  -0.825846   0.563896   0.000000 |
-----------|------ x -------- y -------- z ---|---------------|------ x -------- y -------- z ---|
           |   0.915528  -0.000000   0.000000 | X:   0.143766 |  -0.000000  -0.000000   1.000000 |
 286.00000 |  -0.000000   0.915528   0.000000 | Y:   0.915528 |   0.563677   0.825996   0.000000 |
           |   0.000000   0.000000   0.143766 | Z:   0.915528 |  -0.825996   0.563677   0.000000 |
-----------|------ x -------- y -------- z ---|---------------|------ x -------- y -------- z ---|
           |   0.916059  -0.000000   0.000000 | X:   0.144208 |  -0.000000  -0.000000   1.000000 |
 287.00000 |  -0.000000   0.916059   0.000000 | Y:   0.916059 |   0.563458   0.826145   0.000000 |
           |   0.000000   0.000000   0.144208 | Z:   0.916059 |  -0.826145   0.563458   0.000000 |
-----------|------ x -------- y -------- z ---|---------------|------ x -------- y -------- z ---|
           |   0.916586  -0.000000   0.000000 | X:   0.144650 |  -0.000000  -0.000000   1.000000 |
 288.00000 |  -0.000000   0.916586   0.000000 | Y:   0.916586 |   0.563239   0.826294   0.000000 |
           |   0.000000   0.000000   0.144650 | Z:   0.916586 |  -0.826294   0.563239   0.000000 |
-----------|------ x -------- y -------- z ---|---------------|------ x -------- y -------- z ---|
           |   0.917109  -0.000000   0.000000 | X:   0.145093 |  -0.000000  -0.000000   1.000000 |
 289.00000 |  -0.000000   0.917109   0.000000 | Y:   0.917109 |   0.563020   0.826443   0.000000 |
           |   0.000000   0.000000   0.145093 | Z:   0.917109 |  -0.826443   0.563020   0.000000 |
-----------|------ x -------- y -------- z ---|---------------|------ x -------- y -------- z ---|
           |   0.917629  -0.000000   0.000000 | X:   0.145537 |  -0.000000  -0.000000   1.000000 |
 290.00000 |  -0.000000   0.917629   0.000000 | Y:   0.917629 |   0.562801   0.826593   0.000000 |
           |   0.000000   0.000000   0.145537 | Z:   0.917629 |  -0.826593   0.562801   0.000000 |
-----------|------ x -------- y -------- z ---|---------------|------ x -------- y -------- z ---|
           |   0.918145  -0.000000   0.000000 | X:   0.145981 |  -0.000000  -0.000000   1.000000 |
 291.00000 |  -0.000000   0.918145   0.000000 | Y:   0.918145 |   0.562582   0.826742   0.000000 |
           |   0.000000   0.000000   0.145981 | Z:   0.918145 |  -0.826742   0.562582   0.000000 |
-----------|------ x -------- y -------- z ---|---------------|------ x -------- y -------- z ---|
           |   0.918658  -0.000000   0.000000 | X:   0.146425 |  -0.000000  -0.000000   1.000000 |
 292.00000 |  -0.000000   0.918658   0.000000 | Y:   0.918658 |   0.562363   0.826891   0.000000 |
           |   0.000000   0.000000   0.146425 | Z:   0.918658 |  -0.826891   0.562363   0.000000 |
-----------|------ x -------- y -------- z ---|---------------|------ x -------- y -------- z ---|
           |   0.919168  -0.000000   0.000000 | X:   0.146870 |  -0.000000  -0.000000   1.000000 |
 293.00000 |  -0.000000   0.919168   0.000000 | Y:   0.919168 |   0.562144   0.827039   0.000000 |
           |   0.000000   0.000000   0.146870 | Z:   0.919168 |  -0.827039   0.562144   0.000000 |
-----------|------ x -------- y -------- z ---|---------------|------ x -------- y -------- z ---|
           |   0.919674  -0.000000   0.000000 | X:   0.147316 |  -0.000000  -0.000000   1.000000 |
 294.00000 |  -0.000000   0.919674   0.000000 | Y:   0.919674 |   0.561925   0.827188   0.000000 |
           |   0.000000   0.000000   0.147316 | Z:   0.919674 |  -0.827188   0.561925   0.000000 |
-----------|------ x -------- y -------- z ---|---------------|------ x -------- y -------- z ---|
           |   0.920177  -0.000000   0.000000 | X:   0.147762 |  -0.000000  -0.000000   1.000000 |
 295.00000 |  -0.000000   0.920177   0.000000 | Y:   0.920177 |   0.561706   0.827337   0.000000 |
           |   0.000000   0.000000   0.147762 | Z:   0.920177 |  -0.827337   0.561706   0.000000 |
-----------|------ x -------- y -------- z ---|---------------|------ x -------- y -------- z ---|
           |   0.920677  -0.000000   0.000000 | X:   0.148208 |  -0.000000  -0.000000   1.000000 |
 296.00000 |  -0.000000   0.920677   0.000000 | Y:   0.920677 |   0.561487   0.827485   0.000000 |
           |   0.000000   0.000000   0.148208 | Z:   0.920677 |  -0.827485   0.561487   0.000000 |
-----------|------ x -------- y -------- z ---|---------------|------ x -------- y -------- z ---|
           |   0.921173  -0.000000   0.000000 | X:   0.148655 |  -0.000000  -0.000000   1.000000 |
 297.00000 |  -0.000000   0.921173   0.000000 | Y:   0.921173 |   0.561268   0.827634   0.000000 |
           |   0.000000   0.000000   0.148655 | Z:   0.921173 |  -0.827634   0.561268   0.000000 |
-----------|------ x -------- y -------- z ---|---------------|------ x -------- y -------- z ---|
           |   0.921666  -0.000000   0.000000 | X:   0.149103 |  -0.000000  -0.000000   1.000000 |
 298.00000 |  -0.000000   0.921666   0.000000 | Y:   0.921666 |   0.561050   0.827782   0.000000 |
           |   0.000000   0.000000   0.149103 | Z:   0.921666 |  -0.827782   0.561050   0.000000 |
-----------|------ x -------- y -------- z ---|---------------|------ x -------- y -------- z ---|
           |   0.922156  -0.000000   0.000000 | X:   0.149550 |  -0.000000  -0.000000   1.000000 |
 299.00000 |  -0.000000   0.922156   0.000000 | Y:   0.922156 |   0.560831   0.827930   0.000000 |
           |   0.000000   0.000000   0.149550 | Z:   0.922156 |  -0.827930   0.560831   0.000000 |
-----------|------ x -------- y -------- z ---|---------------|------ x -------- y -------- z ---|
           |   0.922642  -0.000000   0.000000 | X:   0.149998 |  -0.000000  -0.000000   1.000000 |
 300.00000 |  -0.000000   0.922642   0.000000 | Y:   0.922642 |   0.560612   0.828079   0.000000 |
           |   0.000000   0.000000   0.149998 | Z:   0.922642 |  -0.828079   0.560612   0.000000 |
-------------------------------------------------------------------------------------------------|
Computation of the magnetization torque ... skipped by the user
Computation of the molar magnetization ... skipped by the user

-@-#-$-%-&-*--@-#-$-%-&-*--@-#-$-%-&-*--@-#-$-%-&-*--@-#-$-%-&-*--@-#-$-%-&-*--@-#-$-%-&-*--@-#-$-%-&-*--@-#-$-%-&-*--@-#-$-%-&-*-

          HAPPY   LANDING !!!   SINGLE_ANISO ENDED  OK !

-*-&-%-$-#-@--*-&-%-$-#-@--*-&-%-$-#-@--*-&-%-$-#-@--*-&-%-$-#-@--*-&-%-$-#-@--*-&-%-$-#-@--*-&-%-$-#-@--*-&-%-$-#-@--*-&-%-$-#-@-
 SINGLE_ANISO finished sucessfully!



-------------------------------------------------------------------------------
                              ORCA-AILFT
-------------------------------------------------------------------------------

[file orca_tools/SHARK/shark_setup_ri.cpp, line 82]: Error (SHARK/SelectAuxBasis): AuxC requested but not present


ORCA finished by error termination in AILFT
Calling Command: /home/dumitruc/Programs/orca610/orca_ailft cerium_job2 
  .... trying to continue anyways

--------------
CASSCF TIMINGS
--------------

Total time                       ...        1.4 sec
Sum of individual times          ...        1.4 sec ( 99.1%)

Calculation of AO operators
Calculation of MO transformed quantities
Configuration interaction steps
   CI-setup phase                ...        1.0 sec ( 73.3%)
Orbital improvement steps
Properties                       ...        0.4 sec ( 25.6%)
   SOC integral calculation      ...        0.0 sec (  0.1%)
   SSC RMEs (incl. integrals)    ...        0.0 sec (  0.0%)
   SOC RMEs                      ...        0.0 sec (  0.0%)

Maximum memory used throughout the entire CASSCF-calculation: 47.2 MB

-------------------------   --------------------
FINAL SINGLE POINT ENERGY     -8853.022306291039
-------------------------   --------------------



           ************************************************************
           *        Program running with 4 parallel MPI-processes     *
           *              working on a common directory               *
           ************************************************************

------------------------------------------------------------------------------
                              ORCA PROPERTY CALCULATIONS
------------------------------------------------------------------------------

GBWName                                 ... cerium_job2.gbw
Number of atoms                         ...      5
Number of basis functions               ...    176
Max core memory                         ...   2000 MB

Electric properties:
Dipole moment                           ... YES(DKH)
Quadrupole moment                       ...  NO
Static polarizability (Dipole/Dipole)   ...  NO
Static polarizability (Dipole/Quad.)    ...  NO
Static polarizability (Quad./Quad.)     ...  NO
Static polarizability (Velocity)        ...  NO
Static hyperpolarizability              ...  NO

Atomic electric properties:
Dipole moment                           ...  NO
Quadrupole moment                       ...  NO
Static polarizability                   ...  NO

Choice of electric origin               ... Center of mass
Position of electric origin             ...     0.000000     0.000000     0.000000

General magnetic properties:
Magnetizability                         ...  NO

EPR properties:
g-Tensor (aka g-matrix)                 ...  NO
Zero-Field splitting spin-orbit         ...  NO
Zero-field splitting spin-spin          ...  NO
Hyperfine couplings                     ...  NO (   0 nuclei)
Quadrupole couplings                    ...  NO (   0 nuclei)
Contact density                         ...  NO (   0 nuclei)

NMR properties:
Chemical shifts                         ...  NO (   0 nuclei)
Spin-rotation constants                 ...  NO (   0 nuclei)
Spin-spin couplings                     ...  NO (   0 nuclei,    0 pairs)

Choice of magnetic origin               ... Center of nuclear charge
Position of magnetic origin             ...     0.000000     0.000000     0.000000

Properties with geometric perturbations:
SCF Hessian                             ...  NO
IR spectrum                             ...  NO
VCD spectrum                            ...  NO
X-ray spectroscopy properties:
SCF XES/XAS/RIXS spectra                ...  NO

SCF SOC stabilization energy            ...  NO
Diagonal Born-Oppenheimer correction    ...  NO
DKH transformation order                ... Second
Note: picture-change corrections are only included
      for the properties annotated with "YES(DKH)"!


-------------
DIPOLE MOMENT
-------------

Method             : CASSCF/ALL STATES AVERAGE
Type of density    : Electron Density
Level              : Unrelaxed density
State              :  -1
Multiplicity       :  -1
Irrep              :   0
Energy             : -8853.0122306620669406 Eh
Basis              : AO
                                X                 Y                 Z
Electronic contribution:      0.000000000       0.000000000       0.000000000
Nuclear contribution   :      0.000000000       0.000000000       0.000000000
                        -----------------------------------------
Total Dipole Moment    :      0.000000000       0.000000000       0.000000000
                        -----------------------------------------
Magnitude (a.u.)       :      0.000000000
Magnitude (Debye)      :      0.000000001



--------------------
Rotational spectrum 
--------------------
 
Rotational constants in cm-1:             0.000000             0.000000             0.000000 
Rotational constants in MHz :             0.000000             0.000000             0.000000 

Dipole components along the rotational axes: 
x,y,z [a.u.] :     0.000000     0.000000     0.000000 
x,y,z [Debye]:     0.000000     0.000000     0.000000 

 

Dipole moment calculation done in   0.0 sec 

Maximum memory used throughout the entire PROP-calculation: 19.3 MB

--------------------------------
SUGGESTED CITATIONS FOR THIS RUN
--------------------------------

Below you find a list of papers that are relevant to this ORCA run
We neither can nor want to force you to cite these papers, but we appreciate if you do
You receive ORCA, which is the product of decades of hard work by many enthusiastic individuals, for free
The only thing we kindly ask in return is that you cite our papers,
We deeply appreciate it, if you show your appreciation for ORCA by not just citing the generic ORCA reference.

Please note that relegating all ORCA citations to the supporting information does *not* help us.
SI sections are not indexed - citations you put there will not count into any citation statistics
But we need these citations in order to attract the funding resources that allow us to do what we are doing

Therefore, if you are a happy ORCA user, please consider citing a few of the papers listed below in the main body of your paper

In addition to the list printed below, the program has created the file cerium_job2.bibtex that contains the list in bibtex format
You can import this file easily into all common literature databanks and citation aid programs


List of essential papers. We consider these as the minimum necessary citations

  1. Neese, F.
     Software update: the ORCA program system, version 6.0
     WIRES Comput. Molec. Sci. 2025 15(1), e70019
     doi.org/10.1002/wcms.7019

List of papers to cite with high priority. The work reported in these papers was absolutely
necessary for this run to complete.
Our perspective: the developers of density functionals and basis sets usually get cited in chemistry papers
Good! But without the algorithms to do something with them, the functionals or basis sets would not do anything.
Hence, in our opinion, the algorithm design and method developments papers are equally worthy of getting cited

  1. Ganyushin, D.; Neese, F.
     First-principles calculations of zero-field splitting parameters
     J. Chem. Phys. 2006 125(2), Art. No. 024103
     doi.org/10.1063/1.2213976
  2. Atanasov, M.; Ganyushin, D.; Sivalingam, K.; Neese, F.
     A Modern First-Principles View on Ligand Field Theory Through the Eyes of Correlated Multireference Wavefunctions
     Struct. Bond. 2012 142 , 149-220
     doi.org/10.1007/430_2011_57
  3. Kollmar, C.; Sivalingam, K.; Helmich-Paris, B.; Angeli, C.; Neese, F.
     A perturbation-based super-CI approach for the orbital optimization of a CASSCF wave function
     J. Comput. Chem. 2019 40 , 1463-1470
     doi.org/10.1002/jcc.25801
  4. Lang, L.; Neese, F.
     Spin-dependent properties in the framework of the dynamic correlation dressed complete active space method
     J. Chem. Phys. 2019 150 , 
     doi.org/10.1063/1.5085203
  5. Neese, F.
     The SHARK Integral Generation and Digestion System
     J. Comp. Chem. 2022 44(3), 381
     doi.org/10.1002/jcc.26942
  6. Ugandi, M.; Roemelt, M.
     A recursive formulation of one-electron coupling coefficients for spin-adapted configuration interaction calculations featuring many unpaired electrons
     Int. J. Quantum Chem. 2023 123 , e27045
     doi.org/10.1002/qua.27045

List of suggested additional citations. These are papers that are important in the 'surrounding' of 
of this run, or papers that preceded the highly important papers. If you like your results we are grateful for a citation.

  1. Neese, F.
     The ORCA program system
     WIRES Comput. Molec. Sci. 2012 2(1), 73-78
     doi.org/10.1002/wcms.81
  2. Aravena, D.; Atanasov, M.; Neese, F.
     Periodic Trends in Lanthanide Compounds through the Eyes of Multireference ab Initio Theory
     Inorg. Chem. 2016 55(9), 4457-4469
     doi.org/10.1021/acs.inorgchem.6b00244
  3. Jung, J.L.; Atanasov, M.; Neese, F.
     Ab Initio Ligand-Field Theory Analysis and Covalency Trends in Actinide and Lanthanide Free Ions and Octahedral Complexes
     Inorg. Chem. 2016 56(15), 8802-8816
  4. Neese, F.
     Software update: the ORCA program system, version 4.0
     WIRES Comput. Molec. Sci. 2018 8(1), 1-6
     doi.org/10.1002/wcms.1327
  5. Neese, F.; Wennmohs, F.; Becker, U.; Riplinger, C.
     The ORCA quantum chemistry program package
     J. Chem. Phys. 2020 152(22), 224108
     doi.org/10.1063/5.0004608
  6. Neese, F.
     Software update: The ORCA program system—Version 5.0
     WIRES Comput. Molec. Sci. 2022 12(1), e1606
     doi.org/10.1002/wcms.1606

List of optional additional citations

  1. Neese, F.
     Approximate second-order SCF convergence for spin unrestricted wavefunctions
     Chem. Phys. Lett. 2000 325(1-3), 93-98
     doi.org/10.1016/s0009-2614(00)00662-x

Timings for individual modules:

Sum of individual times          ...       80.423 sec (=   1.340 min)
Startup calculation              ...        0.567 sec (=   0.009 min)   0.7 %
Relativistic integrals           ...        0.255 sec (=   0.004 min)   0.3 %
SCF iterations                   ...        0.174 sec (=   0.003 min)   0.2 %
CASSCF iterations                ...       51.675 sec (=   0.861 min)  64.3 %
Property integrals               ...       27.543 sec (=   0.459 min)  34.2 %
Property calculations            ...        0.209 sec (=   0.003 min)   0.3 %



                             ****ORCA TERMINATED NORMALLY****
TOTAL RUN TIME: 0 days 0 hours 1 minutes 45 seconds 812 msec
