SCRATCH DIRECTORY IS: /media/scratch/dumitruc/cerium.21656

                                 *****************
                                 * O   R   C   A *
                                 *****************

                                            #,                                       
                                            ###                                      
                                            ####                                     
                                            #####                                    
                                            ######                                   
                                           ########,                                 
                                     ,,################,,,,,                         
                               ,,#################################,,                 
                          ,,##########################################,,             
                       ,#########################################, ''#####,          
                    ,#############################################,,   '####,        
                  ,##################################################,,,,####,       
                ,###########''''           ''''###############################       
              ,#####''   ,,,,##########,,,,          '''####'''          '####       
            ,##' ,,,,###########################,,,                        '##       
           ' ,,###''''                  '''############,,,                           
         ,,##''                                '''############,,,,        ,,,,,,###''
      ,#''                                            '''#######################'''  
     '                                                          ''''####''''         
             ,#######,   #######,   ,#######,      ##                                
            ,#'     '#,  ##    ##  ,#'     '#,    #''#        ,####,    ,#,          
            ##       ##  ##   ,#'  ##            #'  '#       #'       ,# #          
            ##       ##  #######   ##           ,######,      #####,      #          
            '#,     ,#'  ##    ##  '#,     ,#' ,#      #,     #,   #      #          
             '#######'   ##     ##  '#######'  #'      '#     '####' #    #          



                #########################################################
                #                        -***-                          #
                #          Department of theory and spectroscopy        #
                #                                                       #
                #                      Frank Neese                      #
                #                                                       #
                #     Directorship, Architecture, Infrastructure        #
                #                    SHARK, DRIVERS                     #
                #        Core code/Algorithms in most modules           #
                #                                                       #
                #        Max Planck Institute fuer Kohlenforschung      #
                #                Kaiser Wilhelm Platz 1                 #
                #                 D-45470 Muelheim/Ruhr                 #
                #                      Germany                          #
                #                                                       #
                #                  All rights reserved                  #
                #                        -***-                          #
                #########################################################


                         Program Version 6.1.0  -  RELEASE   -
                                (GIT: $679e74b$)
                          ($2025-06-10 18:02:51 +0200$)


 With contributions from (in alphabetic order):
[Max-Planck-Institut fuer Kohlenforschung]                               
  Daniel Aravena         : Magnetic Suceptibility                        
  Michael Atanasov       : Ab Initio Ligand Field Theory (pilot matlab implementation)
  Alexander A. Auer      : GIAO ZORA, VPT2 properties, NMR spectrum      
  Ute Becker             : All parallelization in ORCA, NUMFREQ, NUMCALC 
  Giovanni Bistoni       : ED, misc. LED, open-shell LED, HFLD           
  Dmytro Bykov           : pre 5.0 version of the SCF Hessian            
  Marcos Casanova-Páez   : Triplet and SCS-CIS(D). UHF-(DLPNO)-IP/EA/STEOM-CCSD. UHF-CVS-IP/STEOM-CCSD   
  Vijay G. Chilkuri      : MRCI spin determinant printing, contributions to CSF-ICE 
  Pauline Colinet        : FMM embedding                                 
  Dipayan Datta          : RHF DLPNO-CCSD density                        
  Achintya Kumar Dutta   : EOM-CC, STEOM-CC                              
  Nicolas Foglia         : Exact transition moments, OPA infrastructure, MCD improvements    
  Dmitry Ganyushin       : Spin-Orbit,Spin-Spin,Magnetic field MRCI      
  Miquel Garcia-Rates    : C-PCM and meta-GGA Hessian, CCSD/C-PCM, Gaussian charge scheme 
  Tiago L. C. Gouveia    : GS-ROHF, GS-ROCIS                             
  Yang Guo               : DLPNO-NEVPT2, F12-NEVPT2, CIM, IAO-localization        
  Andreas Hansen         : Spin unrestricted coupled pair/coupled cluster methods 
  Ingolf Harden          : AUTO-CI MPn and infrastructure                
  Benjamin Helmich-Paris : MC-RPA, TRAH-(SCF,CASSCF), AVAS, COSX integrals, SCF dyn. polar., MC-PDFT, srDFT 
  Lee Huntington         : MR-EOM, pCC                                   
  Robert Izsak           : Overlap fitted RIJCOSX, COSX-SCS-MP3, EOM     
  Riya Kayal             : Wick's Theorem for AUTO-CI, AUTO-CI UHF-CCSDT 
  Emily Kempfer          : AUTO-CI RHF CISDT and CCSDT, approximate NEVPT4
  Christian Kollmar      : KDIIS, OOCD, Brueckner-CCSD(T), CCSD density, CASPT2, CASPT2-K, improved NEVPT2 
  Axel Koslowski         : Symmetry handling                             
  Simone Kossmann        : meta-GGA functionals, TD-DFT gradient, OOMP2, (MP2 Hessian; deprecated post 5.0) 
  Lucas Lang             : DCDCAS, Hyperfine gauge corrections, ICE-SOC+SSC
  Marvin Lechner         : AUTO-CI (C++ implementation), FIC-MRCC        
  Spencer Leger          : CASSCF response                               
  Dagmar Lenk            : GEPOL surface, SMD, ORCA-2-JSON               
  Dimitrios Liakos       : Extrapolation schemes; Compound Job, Property file
  Dimitrios Manganas     : Further ROCIS development; embedding schemes. LFT, Crystal Embedding 
  Dimitrios Pantazis     : SARC Basis sets                               
  Anastasios Papadopoulos: AUTO-CI, single reference methods and gradients 
  Taras Petrenko         : pre 6.0 DFT Hessian and TD-DFT gradient,  ECA, NRVS 
  Petra Pikulova         : Analytic Raman intensities                    
  Peter Pinski           : DLPNO-MP2, DLPNO-MP2 Gradient                 
  Shashank Vittal Rao    : ES-AILFT, MagRelax                            
  Christoph Reimann      : Effective Core Potentials                     
  Marius Retegan         : Local ZFS, SOC                                
  Christoph Riplinger    : Optimizer, TS searches, QM/MM, DLPNO-CCSD(T), (RO)-DLPNO pert. Triples 
  Michael Roemelt        : Original ROCIS implementation, recursive CI coupling coefficients
  Masaaki Saitow         : Open-shell DLPNO-CCSD energy and density      
  Barbara Sandhoefer     : DKH picture change effects                    
  Yorick L. A. Schmerwitz: GMF and freeze-and-release deltaSCF, NEB S-IDPP initial path                    
  Kantharuban Sivalingam : CASSCF convergence/infrastructure, NEVPT2, NEVPT3, NEVPT4(SD), FIC-MRCI and CEPA variants
  Bernardo de Souza      : ESD, SOC TD-DFT                               
  Georgi L. Stoychev     : AutoAux, RI-MP2 NMR, DLPNO-MP2 response, X2C  
  Van Anh Tran           : RI-MP2 g-tensors                              
  Willem Van den Heuvel  : Paramagnetic NMR                              
  Zikuan Wang            : NOTCH, Electric field optimization            
  Frank Wennmohs         : Technical directorship and infrastructure     
  Hang Xu                : AUTO-CI-Response properties                   
                                                                         
[FACCTs GmbH]                                                            
  Markus Bursch, Nicolas Foglia, Miquel Garcia-Rates, Ingolf Harden, Hagen Neugebauer, Anastasios Papadopoulos, 
  Christoph Riplinger, Bernardo de Souza, Georgi L. Stoychev                                                    
                                                                 
  APM, various basis sets, CI-OPT, improved COSX, DLPNO-Multilevel,           
  DOCKER, DRACO, updates on ESD, Fragmentator, GOAT, IRC, LR-CPCM, L-BFGS, MBIS, meta-GGA TD-DFT gradient, ML-optimized integration grids, 
  MM, NACMEs, nearIR, NEB, NEB-TS, NL-DFT gradient (VV10), 2- and 3-layer-ONIOM, interface openCOSMO-RS, QMMM,   
  Crystal-QMMM, RESP, rigid body optimization, SF, symmetry and pop. for TD-DFT, various functionals, SOLVATOR                                   
                                                                         
[Other institutions]                                                     
  V. Asgeirsson          : NEB                                           
  Christoph Bannwarth    : sTDA-DFT, sTD-DFT, PBEh-3c, B97-3c, D3        
  Giovanni Bistoni       : ETS/NOCV, ADLD/ADEX, COVALED                  
  Martin Brehm           : Molecular dynamics                            
  Ronald Cardenas        : ETS/NOCV                                      
  Martina Colucci        : COVALED                                       
  Sebastian Ehlert       : rSCAN, r2SCAN, r2SCAN-3c, D4, dhf basis sets  
  Marvin Friede          : D4 for Fr, Ra, Ac-Lr                          
  Lars Goerigk           : TD-DFT with DH, B97 family of functionals     
  Stefan Grimme          : VdW corrections, initial TS optimization, DFT functionals, gCP, sTDA/sTD-DF 
  Waldemar Hujo          : DFT-NL                                        
  H. Jonsson             : NEB                                           
  Holger Kruse           : gCP                                           
  Marcel Mueller         : wB97X-3c, vDZP basis set                      
  Hagen Neugebauer       : wr2SCAN, Native XTB                           
  Gianluca Regni         : ADLD/ADEX                                     
  Tobias Risthaus        : pre 6.0 range-separated hybrid DFT and stability analysis
  Lukas Wittmann         : regularized MP2, r2SCAN double-hybrids, wr2SCAN        
                                                                         
We gratefully acknowledge several colleagues who have allowed us to      
interface, adapt or use parts of their codes:                            
  Ed Valeev, F. Pavosevic, A. Kumar             : LibInt (2-el integral package), F12 methods 
  Garnet Chan, S. Sharma, J. Yang, R. Olivares  : DMRG                   
  Ulf Ekstrom                                   : XCFun DFT Library      
  Mihaly Kallay                                 : mrcc  (arbitrary order and MRCC methods)
  Frank Weinhold                                : gennbo (NPA and NBO analysis)           
  Simon Mueller                                 : openCOSMO-RS                            
  Christopher J. Cramer and Donald G. Truhlar   : smd solvation model                     
  S Lehtola, MJT Oliveira, MAL Marques          : LibXC Library                           
  Liviu Ungur et al                             : ANISO software                          


 Your calculation uses the libint2 library for the computation of 2-el integrals
 For citations please refer to: http://libint.valeyev.net

 Your ORCA version has been built with support for libXC version: 7.0.0
 For citations please refer to: https://libxc.gitlab.io

 This ORCA versions uses:
   CBLAS   interface :  Fast vector & matrix operations
   LAPACKE interface :  Fast linear algebra routines
   SCALAPACK package :  Parallel linear algebra routines
   Shared memory     :  Shared parallel matrices
   BLAS/LAPACK       :  OpenBLAS 0.3.29  USE64BITINT DYNAMIC_ARCH NO_AFFINITY Haswell SINGLE_THREADED
        Core in use  :  Haswell
   Copyright (c) 2011-2014, The OpenBLAS Project


  ***********************************
  * Starting time: Thu Oct 16 09:37:15 2025
  * Host name:     bohr
  * Process ID:    856861
  * Working dir.:  /media/scratch/dumitruc/cerium.21656
  ***********************************

NOTE: MaxCore=2000 MB was set to SCF,MP2,MDCI,CIPSI,MRCI,RASCI and CIS
      => If you want to overwrite this, your respective input block should be placed after the MaxCore statement
================================================================================

----- Orbital basis set information -----
Your calculation utilizes the basis: SARC2-DKH-QZVP
   D. Aravena, F. Neese and D. A. Pantazis, J. Chem. Theory Comput. 12, 1148 (2016).

================================================================================
                                        WARNINGS
                       Please study these warnings very carefully!
================================================================================


WARNING: The basis set has functions with high angular momentum (Lmax>4).
         We might need to increase small grids for safety reasons and
         in general, DEFGRID3 is recommend for such cases.
  ===> : GRIDX1, TD-DFT and the CP-SCF AngGrids will be increased to at least 2


WARNING: Relativistic property calculations require picture change transformations!
  ===> : Setting %rel PictureChange = 2

NOTE: MaxCore=2000 MB was set to SCF,MP2,MDCI,CIPSI,MRCI,RASCI and CIS
      => If you want to overwrite this, your respective input block should be placed after the MaxCore statement
================================================================================

----- Orbital basis set information -----
Your calculation utilizes the basis: SARC2-DKH-QZVP
   D. Aravena, F. Neese and D. A. Pantazis, J. Chem. Theory Comput. 12, 1148 (2016).

================================================================================
                                        WARNINGS
                       Please study these warnings very carefully!
================================================================================


WARNING: The basis set has functions with high angular momentum (Lmax>4).
         We might need to increase small grids for safety reasons and
         in general, DEFGRID3 is recommend for such cases.
  ===> : GRIDX1, TD-DFT and the CP-SCF AngGrids will be increased to at least 2


CAS(DoANISO) calculation requested: setting Magnetic origin to Nuclear Charge center
WARNING: In AILFT F2ff/F4ff remain undefined when considering only the HS Multiplicity block
         Be Careful with the results!
TIP:     If possible use in addition a LS Multiplicity Block

================================================================================
                                       INPUT FILE
================================================================================
NAME = cerium.inp
|  1> ! dkh
|  2> ! sarc2-dkh-qzvp
|  3> ! tightscf
|  4> ! nori
|  5> ! KDIIS SOSCF NOTRAH
|  6> ! pal4
|  7> %base "start"
|  8> 
|  9> %output
| 10>   Print[ P_ReducedOrbPopMO_M] 1
| 11> end
| 12> 
| 13> %maxcore 2000
| 14> 
| 15> *xyz 4 1
| 16> Ce    0.000000000000      0.000000000000      0.000000000000
| 17> Q -2  1.732050807569     -1.732050807569      1.732050807569
| 18> Q -2 -1.732050807569      1.732050807569      1.732050807569
| 19> Q -2 -1.732050807569     -1.732050807569     -1.732050807569
| 20> Q -2  1.732050807569      1.732050807569     -1.732050807569
| 21> *
| 22> 
| 23> $new_job
| 24> 
| 25> ! dkh
| 26> ! sarc2-dkh-qzvp
| 27> ! tightscf 
| 28> ! nori
| 29> ! pal4
| 30> ! moread
| 31> %moinp "start.gbw"
| 32> 
| 33> %maxcore 2000
| 34> 
| 35> %rel
| 36>   method DKH 
| 37>   picturechange 2
| 38> end
| 39> 
| 40> %output
| 41>   Print[ P_ReducedOrbPopMO_M] 1
| 42> end
| 43> 
| 44> %casscf
| 45>   nel     1
| 46>   norb    7
| 47>   mult    2
| 48>   nroots  7
| 49>   maxiter 120
| 50>   printwf det
| 51>   actorbs forbs
| 52>   ci
| 53>    TPrintWF   0
| 54>   end
| 55>   rel
| 56>     dosoc true
| 57>     tprint 0.0000
| 58>   end
| 59>   aniso
| 60>     doaniso true
| 61>     quax 4
| 62>     mltp 2, 2, 2, 2, 2, 2, 2
| 63>     CRYS_element "Ce"
| 64>     CRYS_charge 3
| 65>   end
| 66> end
| 67> 
| 68> *xyz 3 2
| 69> Ce    0.000000000000      0.000000000000      0.000000000000
| 70> Q -2  1.732050807569     -1.732050807569      1.732050807569
| 71> Q -2 -1.732050807569      1.732050807569      1.732050807569
| 72> Q -2 -1.732050807569     -1.732050807569     -1.732050807569
| 73> Q -2  1.732050807569      1.732050807569     -1.732050807569
| 74> *
| 75> 
| 76> 
| 77>                          ****END OF INPUT****
================================================================================


                 $$$$$$$$$$$$$$$$$$$$$$$$$$$$$$$$$$$$$$$$$$$$$$ 
                 $ THERE ARE  2 JOBS TO BE PROCESSED THIS RUN $
                 $$$$$$$$$$$$$$$$$$$$$$$$$$$$$$$$$$$$$$$$$$$$$$ 




                 $$$$$$$$$$$$$$$$  JOB NUMBER  1 $$$$$$$$$$$$$$


                       ****************************
                       * Single Point Calculation *
                       ****************************

---------------------------------
CARTESIAN COORDINATES (ANGSTROEM)
---------------------------------
  Ce     0.000000    0.000000    0.000000
  Q      1.732051   -1.732051    1.732051
  Q     -1.732051    1.732051    1.732051
  Q     -1.732051   -1.732051   -1.732051
  Q      1.732051    1.732051   -1.732051

----------------------------
CARTESIAN COORDINATES (A.U.)
----------------------------
  NO LB      ZA    FRAG     MASS         X           Y           Z
   0 Ce   58.0000    0   140.120    0.000000    0.000000    0.000000
   1 Q    -2.0000    0     0.000    3.273102   -3.273102    3.273102
   2 Q    -2.0000    0     0.000   -3.273102    3.273102    3.273102
   3 Q    -2.0000    0     0.000   -3.273102   -3.273102   -3.273102
   4 Q    -2.0000    0     0.000    3.273102    3.273102   -3.273102

--------------------------------
INTERNAL COORDINATES (ANGSTROEM)
--------------------------------
 Ce     0   0   0     0.000000000000     0.00000000     0.00000000
 Q      1   0   0     3.000000000000     0.00000000     0.00000000
 Q      1   2   0     3.000000000000   109.47122063     0.00000000
 Q      1   2   3     3.000000000000   109.47122063   240.00000000
 Q      1   2   3     3.000000000000   109.47122063   120.00000000

---------------------------
INTERNAL COORDINATES (A.U.)
---------------------------
 Ce     0   0   0     0.000000000000     0.00000000     0.00000000
 Q      1   0   0     5.669178401764     0.00000000     0.00000000
 Q      1   2   0     5.669178401764   109.47122063     0.00000000
 Q      1   2   3     5.669178401764   109.47122063   240.00000000
 Q      1   2   3     5.669178401764   109.47122063   120.00000000

---------------------
BASIS SET INFORMATION
---------------------
There are 2 groups of distinct atoms

 Group   1 Type Ce  : 23s16p12d7f3g2h contracted to 18s12p9d4f3g2h pattern {611111111111111111/511111111111/411111111/4111/111/11}
 Group   2 Type Q,> :  contracted to  pattern {}

Atom   0Ce   basis set group =>   1
Atom   1Q    basis set group =>   2
Atom   2Q    basis set group =>   2
Atom   3Q    basis set group =>   2
Atom   4Q    basis set group =>   2


           ************************************************************
           *        Program running with 4 parallel MPI-processes     *
           *              working on a common directory               *
           ************************************************************
------------------------------------------------------------------------------
                             ORCA STARTUP CALCULATIONS
------------------------------------------------------------------------------
------------------------------------------------------------------------------
                   ___                                                        
                  /   \      - P O W E R E D   B Y -                         
                 /     \                                                     
                 |  |  |   _    _      __       _____    __    __             
                 |  |  |  | |  | |    /  \     |  _  \  |  |  /  |          
                  \  \/   | |  | |   /    \    | | | |  |  | /  /          
                 / \  \   | |__| |  /  /\  \   | |_| |  |  |/  /          
                |  |  |   |  __  | /  /__\  \  |    /   |      \           
                |  |  |   | |  | | |   __   |  |    \   |  |\   \          
                \     /   | |  | | |  |  |  |  | |\  \  |  | \   \       
                 \___/    |_|  |_| |__|  |__|  |_| \__\ |__|  \__/        
                                                                              
                      - O R C A' S   B I G   F R I E N D -                    
                                      &                                       
                       - I N T E G R A L  F E E D E R -                       
                                                                              
 v1 FN, 2020, v2 2021, v3 2022-2024                                           
------------------------------------------------------------------------------


----------------------
SHARK INTEGRAL PACKAGE
----------------------

Number of atoms                             ...      5
Number of basis functions                   ...    176
Number of shells                            ...     48
Maximum angular momentum                    ...      5
Integral batch strategy                     ... SHARK/LIBINT Hybrid
RI-J (if used) integral strategy            ... SPLIT-RIJ (Revised 2003 algorithm where possible)
Printlevel                                  ...      1
Contraction scheme used                     ... SEGMENTED contraction
Prescreening option                         ... SCHWARTZ
   Thresh                                   ... 2.500e-11
   Tcut                                     ... 2.500e-12
   Tpresel                                  ... 2.500e-12 
Coulomb Range Separation                    ... NOT USED
Exchange Range Separation                   ... NOT USED
Multipole approximations                    ... NOT USED
Finite Nucleus Model                        ... NOT USED
CABS basis                                  ... NOT available
Auxiliary Coulomb fitting basis             ... NOT available
Auxiliary J/K fitting basis                 ... NOT available
Auxiliary Correlation fitting basis         ... NOT available
Auxiliary 'external' fitting basis          ... NOT available

Checking pre-screening integrals            ... done (  0.0 sec) Dimension = 48
   => SHARK Basis and OBASIS are compatible. Storing Pre-screening
Shell pair information
Shell pair cut-off parameter TPreSel        ...   2.5e-12
Total number of shell pairs                 ...      1176
Shell pairs after pre-screening             ...      1174
Total number of primitive shell pairs       ...      2053
Primitive shell pairs kept                  ...      2041
          la=0 lb=0:    171 shell pairs
          la=1 lb=0:    216 shell pairs
          la=1 lb=1:     78 shell pairs
          la=2 lb=0:    162 shell pairs
          la=2 lb=1:    108 shell pairs
          la=2 lb=2:     45 shell pairs
          la=3 lb=0:     72 shell pairs
          la=3 lb=1:     48 shell pairs
          la=3 lb=2:     36 shell pairs
          la=3 lb=3:     10 shell pairs
          la=4 lb=0:     53 shell pairs
          la=4 lb=1:     36 shell pairs
          la=4 lb=2:     27 shell pairs
          la=4 lb=3:     12 shell pairs
          la=4 lb=4:      6 shell pairs
          la=5 lb=0:     35 shell pairs
          la=5 lb=1:     24 shell pairs
          la=5 lb=2:     18 shell pairs
          la=5 lb=3:      8 shell pairs
          la=5 lb=4:      6 shell pairs
          la=5 lb=5:      3 shell pairs

Checking whether 4 symmetric matrices of dimension 176 fit in memory
:Max Core in MB      =   2000.00
 MB in use           =      7.26
 MB left             =   1992.74
 MB needed           =      0.48
 Data fit in memory  = YES
Calculating Nuclear repulsion               ... done (  0.0 sec) ENN=    -79.253646596037 Eh

Diagonalization of the overlap matrix:
Smallest eigenvalue                        ... 1.265e-03
Time for diagonalization                   ...    0.001 sec
Threshold for overlap eigenvalues          ... 1.000e-07
Number of eigenvalues below threshold      ... 0
Time for construction of square roots      ...    0.001 sec
Total time needed                          ...    0.002 sec

-------------------
DFT GRID GENERATION
-------------------

General Integration Accuracy     IntAcc      ... 4.388
Radial Grid Type                 RadialGrid  ... OptM3 with GC (2021)
Angular Grid (max. ang.)         AngularGrid ... 4 (Lebedev-302)
Angular grid pruning method      GridPruning ... 4 (adaptive)
Weight generation scheme         WeightScheme... mBecke (2022)
Basis function cutoff            BFCut       ... 1.0000e-11
Integration weight cutoff        WCut        ... 1.0000e-14
Partially contracted basis set               ... off
Rotationally invariant grid construction     ... off
Angular grids for H and He will be reduced by one unit
Core-polarized basis detected: some atoms will have their core
                               angular grid increased.
Steep s-basis detected: some atoms will have their radial
                        grid points doubled.

Total number of grid points                  ...    29240
Total number of batches                      ...      459
Average number of points per batch           ...       63
Average number of grid points per atom       ...     5848
Grids setup in   0.1 sec
Initializing property integral containers    ... done (  0.0 sec)

SHARK setup successfully completed in   0.2 seconds

Maximum memory used throughout the entire STARTUP-calculation: 38.2 MB


           ************************************************************
           *        Program running with 4 parallel MPI-processes     *
           *              working on a common directory               *
           ************************************************************
------------------------------------------------------------------------------
                          ORCA RELATIVISTIC HAMILTONIAN
------------------------------------------------------------------------------

Relativistic Method            ... DKH
Order of DKH treatment         ...   2
Treatment of potential         ... V(e,N)
Eps parameter for DKH          ...   0.00000000010000
Nucleus model                  ... Point Nucleus
Speed of light used            ... 137.03598950000000


            ************************************************
            *        DOUGLAS-KROLL-HESS HAMILTONIAN        *
            *   Programmed by FN according to literature   *
            *        procedures. Special thanks to         *
            *       B.A. Hess, M. Reiher and A. Wolf       *
            *     University Erlangen-Nuernberg/Bonn       *
            ************************************************

Uncontracting the basis (first version)        ... done
Number of contracted basis functions           ...  176
Number of uncontracted basis functions         ...  229
Initializing the DKH file                      ... done
Calculating the relativistic integrals         ... done
Storing DKH matrices                           ... done
Computing the DKH transformation               ... done
Storing the transformation variables           ... done
Transforming V and pVp to p**2 space           ... done
First transformation of V and pVp              ... done
Second transformation of Veff                  ... done
Adding kinetic energy                          ... done
Back transformation of Veff to r-space         ... done
Recovering DKH matrices                        ... done
Recontracting the H-matrix (first version)     ... done
Computing the DKH correction to the H-matrix   ... done
Reading the original H-matrix                  ... done
Adding DKH correction to the H-matrix          ... done
Storing the new modified H-matrix              ... done

Maximum memory used throughout the entire REL-calculation: 41.5 MB


           ************************************************************
           *        Program running with 4 parallel MPI-processes     *
           *              working on a common directory               *
           ************************************************************
-------------------------------------------------------------------------------
                                 ORCA GUESS
                   Start orbitals & Density for SCF / CASSCF
-------------------------------------------------------------------------------

------------
SCF SETTINGS
------------
Hamiltonian:
 Ab initio Hamiltonian  Method          .... Hartree-Fock(GTOs)

Relativistic Settings:
 Scalar relativistic method             .... Douglas-Kroll-Hess
 Order of DKH procedure    Order        ....    2
 Mode of DKH-treatment                  .... V=V(e,N)
 Speed of light used       Velit        ....       137.035989
 Cutoff-constant           Eps          ....            1e-10 


General Settings:
 Integral files         IntName         .... start
 Hartree-Fock type      HFTyp           .... RHF
 Total Charge           Charge          ....    4
 Multiplicity           Mult            ....    1
 Number of Electrons    NEL             ....   54
 Basis Dimension        Dim             ....  176
 Nuclear Repulsion      ENuc            ....    -79.2536465960 Eh

Convergence Acceleration:
 AO-DIIS                CNVDIIS         .... off
 MO-DIIS                CNVKDIIS        .... on
   # of expansion vecs  DIISMaxEq       ....     5
   Initial Damping      KDIISInitialDamp....     1
   Tranformation alg.   KDIISTransform  ....     1
 Trust-Rad. Augm. Hess. CNVTRAH         .... off
 SOSCF                 CNVSOSCF           .... on
   Start iteration     SOSCFMaxIt         ....   150
   Startup grad/error  SOSCFStart         ....  0.003300
   Hessian update      SOSCFHessUp        .... L-BFGS
   Autom. constraints  SOSCFAutoConstrain .... off
 Level Shifting         CNVShift        .... off
 Zerner damping         CNVZerner       .... off
 Static damping         CNVDamp         .... off

SCF Procedure:
 Maximum # iterations   MaxIter         ....   125
 SCF integral mode      SCFMode         .... Direct
   Integral package                     .... SHARK and LIBINT hybrid scheme
 Reset frequency        DirectResetFreq ....    20
 Integral Threshold     Thresh          ....  2.500e-11 Eh
 Primitive CutOff       TCut            ....  2.500e-12 Eh

Convergence Tolerance:
 Convergence Check Mode ConvCheckMode   .... Total+1el-Energy
 Convergence forced     ConvForced      .... 0
 Energy Change          TolE            ....  1.000e-08 Eh
 1-El. energy change                    ....  1.000e-05 Eh
 Orbital Gradient       TolG            ....  1.000e-05
 Orbital Rotation angle TolX            ....  1.000e-05

------------------------------
INITIAL GUESS: MODEL POTENTIAL
------------------------------
Loading DKH relativistic densities                 ... done
Calculating cut-offs                               ... done
Initializing the effective Hamiltonian             ... done
Setting up the integral package (SHARK)            ... done
Starting the Coulomb interaction                   ... done (   0.0 sec)
Making the grid                                    ... done (   0.0 sec)
Mapping shells                                     ... done
Starting the XC term evaluation                    ... done (   0.0 sec)
Transforming the Hamiltonian                       ... done (   0.0 sec)
Diagonalizing the Hamiltonian                      ... done (   0.0 sec)
Back transforming the eigenvectors                 ... done (   0.0 sec)
Now organizing SCF variables                       ... done
                      ------------------
                      INITIAL GUESS DONE (   0.0 sec)
                      ------------------
             **** ENERGY FILE WAS UPDATED (start.en.tmp) ****
Finished Guess after   0.1 sec
Maximum memory used throughout the entire GUESS-calculation: 18.6 MB


           ************************************************************
           *        Program running with 4 parallel MPI-processes     *
           *              working on a common directory               *
           ************************************************************

-------------------------------------------------------------------------------------------
                                      ORCA LEAN-SCF
                              memory conserving SCF solver
-------------------------------------------------------------------------------------------

----------------------------------------D-I-I-S--------------------------------------------
Iteration    Energy (Eh)           Delta-E    RMSDP     MaxDP     MaxGrad   Damp  Time(sec)
-------------------------------------------------------------------------------------------
               ***  Starting incremental Fock matrix formation  ***
                          ****Turning on DIIS(Cayley)****
    1    -8852.8175050992449542     0.00e+00  3.10e-03  7.87e-02  1.62e+00  0.900   1.1
    2    -8852.9062415584921837    -8.87e-02  5.00e-03  1.31e-01  1.46e+00  0.800   1.0
    3    -8853.0217441928525659    -1.16e-01  8.51e-03  2.23e-01  1.17e+00  0.600   1.0
    4    -8853.1634573925603036    -1.42e-01  1.35e-02  3.63e-01  7.01e-01  0.000   1.0
                              *** Initializing SOSCF ***
---------------------------------------S-O-S-C-F--------------------------------------
Iteration    Energy (Eh)           Delta-E    RMSDP     MaxDP     MaxGrad    Time(sec)
--------------------------------------------------------------------------------------
    5    -8853.2437372935928579    -8.03e-02  3.46e-04  7.00e-03  2.27e-03     1.0
               *** Restarting incremental Fock matrix formation ***
    6    -8853.2437807160695229    -4.34e-05  6.02e-05  1.83e-03  1.68e-03     1.0
    7    -8853.2437839476442605    -3.23e-06  1.67e-05  4.48e-04  4.55e-04     1.0
    8    -8853.2437843572461134    -4.10e-07  3.77e-06  5.98e-05  7.25e-05     0.9
    9    -8853.2437843953794072    -3.81e-08  2.11e-06  3.80e-05  2.54e-05     0.9
   10    -8853.2437844016258168    -6.25e-09  3.24e-07  6.19e-06  4.62e-06     0.8
                 **** Energy Check signals convergence ****

               *****************************************************
               *                     SUCCESS                       *
               *           SCF CONVERGED AFTER  10 CYCLES          *
               *****************************************************

             **** ENERGY FILE WAS UPDATED (start.en.tmp) ****

----------------
TOTAL SCF ENERGY
----------------

Total Energy       :      -8853.24378440271175 Eh         -240909.01095 eV

Components:
Nuclear Repulsion  :        -79.25364659603673 Eh           -2156.60136 eV
Electronic Energy  :      -8773.99013780667519 Eh         -238752.40959 eV
One Electron Energy:     -11904.92917118033802 Eh         -323949.59203 eV
Two Electron Energy:       3130.93903337366282 Eh           85197.18244 eV

Virial components:
Potential Energy   :     -19585.28725473671511 Eh         -532942.76049 eV
Kinetic Energy     :      10732.04347033400336 Eh          292033.74954 eV
Virial Ratio       :          1.82493551287555

---------------
SCF CONVERGENCE
---------------

  Last Energy change         ...    6.2464e-09  Tolerance :   1.0000e-08
  Last MAX-Density change    ...    6.1919e-06  Tolerance :   1.0000e-07
  Last RMS-Density change    ...    3.2430e-07  Tolerance :   5.0000e-09
  Last Orbital Gradient      ...    4.6160e-06  Tolerance :   1.0000e-05
  Last Orbital Rotation      ...    9.7108e-07  Tolerance :   1.0000e-05


----------------
ORBITAL ENERGIES
----------------

  NO   OCC          E(Eh)            E(eV) 
   0   2.0000   -1492.384814    -40609.8553 
   1   2.0000    -243.298538     -6620.4898 
   2   2.0000    -217.999405     -5932.0654 
   3   2.0000    -217.999405     -5932.0654 
   4   2.0000    -217.999405     -5932.0654 
   5   2.0000     -54.349774     -1478.9325 
   6   2.0000     -46.072705     -1253.7020 
   7   2.0000     -46.072705     -1253.7020 
   8   2.0000     -46.072705     -1253.7020 
   9   2.0000     -34.178438      -930.0426 
  10   2.0000     -34.178438      -930.0426 
  11   2.0000     -34.178424      -930.0422 
  12   2.0000     -34.178424      -930.0422 
  13   2.0000     -34.178424      -930.0422 
  14   2.0000     -11.915938      -324.2492 
  15   2.0000      -9.085698      -247.2344 
  16   2.0000      -9.085698      -247.2344 
  17   2.0000      -9.085698      -247.2344 
  18   2.0000      -4.852537      -132.0442 
  19   2.0000      -4.852537      -132.0442 
  20   2.0000      -4.852441      -132.0416 
  21   2.0000      -4.852441      -132.0416 
  22   2.0000      -4.852441      -132.0416 
  23   2.0000      -1.880076       -51.1595 
  24   2.0000      -1.022814       -27.8322 
  25   2.0000      -1.022814       -27.8322 
  26   2.0000      -1.022814       -27.8322 
  27   0.0000       0.221151         6.0178 
  28   0.0000       0.221151         6.0178 
  29   0.0000       0.221151         6.0178 
  30   0.0000       0.222184         6.0459 
  31   0.0000       0.222184         6.0459 
  32   0.0000       0.222184         6.0459 
  33   0.0000       0.222939         6.0665 
  34   0.0000       0.328009         8.9256 
  35   0.0000       0.328009         8.9256 
  36   0.0000       0.338057         9.1990 
  37   0.0000       0.338057         9.1990 
*Only the first 10 virtual orbitals were printed.

                    ********************************
                    * MULLIKEN POPULATION ANALYSIS *
                    ********************************

-----------------------
MULLIKEN ATOMIC CHARGES
-----------------------
   0 Ce:    4.000000
   1 Q :   -2.000000
   2 Q :   -2.000000
   3 Q :   -2.000000
   4 Q :   -2.000000
Sum of atomic charges:   -4.0000000

--------------------------------
MULLIKEN REDUCED ORBITAL CHARGES
--------------------------------
  0 Ces       :     9.999917  s :     9.999917
      pz      :     7.999638  p :    23.998913
      px      :     7.999638
      py      :     7.999638
      dz2     :     4.000000  d :    20.001028
      dxz     :     4.000343
      dyz     :     4.000343
      dx2y2   :     4.000000
      dxy     :     4.000343
      f0      :     0.000013  f :     0.000120
      f+1     :     0.000005
      f-1     :     0.000005
      f+2     :     0.000000
      f-2     :     0.000082
      f+3     :     0.000008
      f-3     :     0.000008
      g0      :     0.000000  g :     0.000022
      g+1     :     0.000001
      g-1     :     0.000001
      g+2     :     0.000000
      g-2     :     0.000007
      g+3     :     0.000006
      g-3     :     0.000006
      g+4     :     0.000000
      g-4     :     0.000000
      h0      :     0.000000  h :     0.000000
      h+1     :     0.000000
      h-1     :     0.000000
      h+2     :     0.000000
      h-2     :     0.000000
      h+3     :     0.000000
      h-3     :     0.000000
      h+4     :     0.000000
      h-4     :     0.000000
      h+5     :     0.000000
      h-5     :     0.000000

  1 Q 

  2 Q 

  3 Q 

  4 Q 


-------------------------------------------
MULLIKEN REDUCED ORBITAL POPULATIONS PER MO
--------------------------------------------
THRESHOLD FOR PRINTING IS 0.1%%
                      0         1         2         3         4         5   
                 -1492.38481 -243.29854 -217.99941 -217.99941 -217.99941 -54.34977
                   2.00000   2.00000   2.00000   2.00000   2.00000   2.00000
                  --------  --------  --------  --------  --------  --------
 0 Ce s             100.0     100.0       0.0       0.0       0.0     100.0
 0 Ce pz              0.0       0.0       7.9      79.7      12.4       0.0
 0 Ce px              0.0       0.0      84.4      12.7       2.9       0.0
 0 Ce py              0.0       0.0       7.7       7.6      84.7       0.0

                      6         7         8         9        10        11   
                 -46.07270 -46.07270 -46.07270 -34.17844 -34.17844 -34.17842
                   2.00000   2.00000   2.00000   2.00000   2.00000   2.00000
                  --------  --------  --------  --------  --------  --------
 0 Ce pz             81.6      18.3       0.1       0.0       0.0       0.0
 0 Ce px              3.4      20.8      75.7       0.0       0.0       0.0
 0 Ce py             14.9      60.9      24.2       0.0       0.0       0.0
 0 Ce dz2             0.0       0.0       0.0      60.6      39.4       0.0
 0 Ce dxz             0.0       0.0       0.0       0.0       0.0      39.4
 0 Ce dyz             0.0       0.0       0.0       0.0       0.0       9.8
 0 Ce dx2y2           0.0       0.0       0.0      39.4      60.6       0.0
 0 Ce dxy             0.0       0.0       0.0       0.0       0.0      50.8

                     12        13        14        15        16        17   
                 -34.17842 -34.17842 -11.91594  -9.08570  -9.08570  -9.08570
                   2.00000   2.00000   2.00000   2.00000   2.00000   2.00000
                  --------  --------  --------  --------  --------  --------
 0 Ce s               0.0       0.0     100.0       0.0       0.0       0.0
 0 Ce pz              0.0       0.0       0.0      61.6       8.9      29.5
 0 Ce px              0.0       0.0       0.0      25.2      67.2       7.6
 0 Ce py              0.0       0.0       0.0      13.2      23.9      63.0
 0 Ce dxz            18.4      42.2       0.0       0.0       0.0       0.0
 0 Ce dyz            81.6       8.6       0.0       0.0       0.0       0.0
 0 Ce dxy             0.0      49.2       0.0       0.0       0.0       0.0

                     18        19        20        21        22        23   
                  -4.85254  -4.85254  -4.85244  -4.85244  -4.85244  -1.88008
                   2.00000   2.00000   2.00000   2.00000   2.00000   2.00000
                  --------  --------  --------  --------  --------  --------
 0 Ce s               0.0       0.0       0.0       0.0       0.0     100.0
 0 Ce dz2            33.4      66.6       0.0       0.0       0.0       0.0
 0 Ce dxz             0.0       0.0       9.7      44.9      45.4       0.0
 0 Ce dyz             0.0       0.0       4.5      54.8      40.7       0.0
 0 Ce dx2y2          66.6      33.4       0.0       0.0       0.0       0.0
 0 Ce dxy             0.0       0.0      85.8       0.3      13.9       0.0

                     24        25        26        27        28        29   
                  -1.02281  -1.02281  -1.02281   0.22115   0.22115   0.22115
                   2.00000   2.00000   2.00000   0.00000   0.00000   0.00000
                  --------  --------  --------  --------  --------  --------
 0 Ce pz             22.9      64.4      12.7       0.0       0.0       0.0
 0 Ce px             32.1      35.1      32.7       0.0       0.0       0.0
 0 Ce py             45.0       0.5      54.5       0.0       0.0       0.0
 0 Ce dxz             0.0       0.0       0.0       0.0       0.4       0.0
 0 Ce dyz             0.0       0.0       0.0       0.2       0.0       0.3
 0 Ce dxy             0.0       0.0       0.0       0.3       0.0       0.2
 0 Ce f0              0.0       0.0       0.0      60.8       0.0      38.7
 0 Ce f+1             0.0       0.0       0.0      14.4       0.2      22.7
 0 Ce f-1             0.0       0.0       0.0       0.1      37.1       0.1
 0 Ce f+3             0.0       0.0       0.0      24.1       0.4      37.8
 0 Ce f-3             0.0       0.0       0.0       0.1      61.9       0.2

                     30        31        32        33        34        35   
                   0.22218   0.22218   0.22218   0.22294   0.32801   0.32801
                   0.00000   0.00000   0.00000   0.00000   0.00000   0.00000
                  --------  --------  --------  --------  --------  --------
 0 Ce s               0.0       0.0       0.0       0.2       0.0       0.0
 0 Ce dz2             0.0       0.0       0.0       0.0      43.3      56.7
 0 Ce dx2y2           0.0       0.0       0.0       0.0      56.7      43.3
 0 Ce f+1            55.0       3.7       3.8       0.0       0.0       0.0
 0 Ce f-1             0.1      39.2      23.1       0.0       0.0       0.0
 0 Ce f+2            11.8      31.4      56.8       0.0       0.0       0.0
 0 Ce f-2             0.0       0.0       0.0      99.8       0.0       0.0
 0 Ce f+3            33.0       2.2       2.3       0.0       0.0       0.0
 0 Ce f-3             0.1      23.5      13.9       0.0       0.0       0.0

                     36        37        38        39        40        41   
                   0.33806   0.33806   0.33806   0.45507   0.45507   0.45507
                   0.00000   0.00000   0.00000   0.00000   0.00000   0.00000
                  --------  --------  --------  --------  --------  --------
 0 Ce pz              1.2       0.2       0.0      26.9      58.7      10.6
 0 Ce px              0.2       1.2       0.0      29.6      36.2      30.3
 0 Ce py              0.0       0.0       1.4      39.6       1.2      55.3
 0 Ce dxz             1.3       0.9      95.8       1.6       0.0       2.3
 0 Ce dyz            15.3      80.9       1.8       1.2       1.5       1.2
 0 Ce dxy            81.4      16.1       0.4       1.1       2.4       0.4
 0 Ce f0              0.5       0.1       0.0       0.0       0.0       0.0
 0 Ce f+1             0.0       0.2       0.0       0.0       0.0       0.0
 0 Ce f-1             0.0       0.0       0.2       0.0       0.0       0.0
 0 Ce f+3             0.1       0.3       0.0       0.0       0.0       0.0
 0 Ce f-3             0.0       0.0       0.4       0.0       0.0       0.0

                     42        43        44        45        46        47   
                   0.46725   0.52822   0.58874   0.58874   0.58874   0.62195
                   0.00000   0.00000   0.00000   0.00000   0.00000   0.00000
                  --------  --------  --------  --------  --------  --------
 0 Ce s              98.5      99.8       0.0       0.0       0.0       0.0
 0 Ce pz              0.0       0.0      17.9       0.9      54.5       0.0
 0 Ce px              0.0       0.0      12.7      51.7       9.0       0.0
 0 Ce py              0.0       0.0      42.7      20.7       9.9       0.0
 0 Ce dz2             0.0       0.0       0.0       0.0       0.0      40.9
 0 Ce dxz             0.0       0.0      15.5       7.5       3.6       0.0
 0 Ce dyz             0.0       0.0       4.6      18.7       3.2       0.0
 0 Ce dx2y2           0.0       0.0       0.0       0.0       0.0      59.1
 0 Ce dxy             0.0       0.0       6.5       0.3      19.7       0.0
 0 Ce f-2             1.5       0.2       0.0       0.0       0.0       0.0

                     48        49        50        51        52        53   
                   0.62195   0.71309   0.71309   0.71309   0.90655   0.90655
                   0.00000   0.00000   0.00000   0.00000   0.00000   0.00000
                  --------  --------  --------  --------  --------  --------
 0 Ce pz              0.0       9.7      24.4       4.4       0.0       0.0
 0 Ce px              0.0      22.7       2.0      13.9       0.0       0.0
 0 Ce py              0.0       6.2      12.1      20.3       0.0       0.0
 0 Ce dz2            59.1       0.0       0.0       0.0      99.1       0.9
 0 Ce dxz             0.0       9.8      19.2      32.2       0.0       0.0
 0 Ce dyz             0.0      36.1       3.2      22.0       0.0       0.0
 0 Ce dx2y2          40.9       0.0       0.0       0.0       0.9      99.1
 0 Ce dxy             0.0      15.4      38.9       7.0       0.0       0.0
 0 Ce f0              0.0       0.0       0.1       0.0       0.0       0.0

                     54        55        56        57        58        59   
                   0.91107   0.92167   0.92167   0.92167   0.99087   0.99087
                   0.00000   0.00000   0.00000   0.00000   0.00000   0.00000
                  --------  --------  --------  --------  --------  --------
 0 Ce s              99.3       0.0       0.0       0.0       0.0       0.0
 0 Ce pz              0.0      58.9      12.2       2.1       4.0      10.4
 0 Ce px              0.0      13.3      35.5      24.4       2.8       0.8
 0 Ce py              0.0       1.0      25.5      46.7       7.7       3.3
 0 Ce dxz             0.0       0.4       8.9      16.4      33.1      14.1
 0 Ce dyz             0.0       4.7      12.4       8.6      12.1       3.3
 0 Ce dxy             0.0      20.6       4.3       0.7      17.3      45.1
 0 Ce f0              0.0       0.9       0.2       0.0       6.4      16.6
 0 Ce f+1             0.0       0.1       0.2       0.1       1.7       0.5
 0 Ce f-1             0.0       0.0       0.1       0.3       4.6       2.0
 0 Ce f-2             0.7       0.0       0.0       0.0       0.0       0.0
 0 Ce f+3             0.0       0.1       0.3       0.2       2.8       0.8
 0 Ce f-3             0.0       0.0       0.2       0.4       7.6       3.3

                     60        61        62        63        64        65   
                   0.99087   1.07967   1.07967   1.07967   1.10490   1.10490
                   0.00000   0.00000   0.00000   0.00000   0.00000   0.00000
                  --------  --------  --------  --------  --------  --------
 0 Ce pz              0.0       0.0       0.0       0.0       0.6       0.1
 0 Ce px             10.9       0.0       0.0       0.0       1.8       0.6
 0 Ce py              3.5       0.0       0.0       0.0       0.3       2.0
 0 Ce dxz            15.2       0.0       0.0       0.0       2.2      16.3
 0 Ce dyz            47.2       0.0       0.0       0.0      14.7       4.5
 0 Ce dxy             0.1       0.0       0.0       0.0       4.9       0.9
 0 Ce f0              0.0       0.0       0.0       0.0      17.1       3.2
 0 Ce f+1             6.5      41.3       0.4      20.8      19.1       5.9
 0 Ce f-1             2.1       0.2      62.0       0.3       2.9      21.3
 0 Ce f+2             0.0      33.6       0.0      66.4       0.0       0.0
 0 Ce f+3            10.9      24.8       0.3      12.5      31.8       9.8
 0 Ce f-3             3.5       0.1      37.2       0.2       4.8      35.4

                     66        67        68        69        70        71   
                   1.10490   1.12327   1.73280   1.73280   1.77657   1.77657
                   0.00000   0.00000   0.00000   0.00000   0.00000   0.00000
                  --------  --------  --------  --------  --------  --------
 0 Ce s               0.0       2.2       0.0       0.0       0.0       0.0
 0 Ce pz              2.0       0.0       0.0       0.0      11.5       0.0
 0 Ce px              0.3       0.0       0.0       0.0       0.1      20.2
 0 Ce py              0.4       0.0       0.0       0.0       8.8       0.1
 0 Ce dz2             0.0       0.0       0.3      99.7       0.0       0.0
 0 Ce dxz             3.2       0.0       0.0       0.0      34.4       0.5
 0 Ce dyz             2.6       0.0       0.0       0.0       0.3      79.1
 0 Ce dx2y2           0.0       0.0      99.7       0.3       0.0       0.0
 0 Ce dxy            15.9       0.0       0.0       0.0      45.0       0.0
 0 Ce f0             55.3       0.0       0.0       0.0       0.0       0.0
 0 Ce f+1             3.4       0.0       0.0       0.0       0.0       0.0
 0 Ce f-1             4.2       0.0       0.0       0.0       0.0       0.0
 0 Ce f-2             0.0      97.8       0.0       0.0       0.0       0.0
 0 Ce f+3             5.7       0.0       0.0       0.0       0.0       0.0
 0 Ce f-3             7.0       0.0       0.0       0.0       0.0       0.0

                     72        73        74        75        76        77   
                   1.77657   1.82324   1.82324   1.82324   1.96992   2.38628
                   0.00000   0.00000   0.00000   0.00000   0.00000   0.00000
                  --------  --------  --------  --------  --------  --------
 0 Ce s               0.0       0.0       0.0       0.0      99.4       0.0
 0 Ce pz              8.8       8.1      14.4      57.3       0.0       0.0
 0 Ce px              0.1      59.3       4.6      15.9       0.0       0.0
 0 Ce py             11.4      12.4      60.8       6.7       0.0       0.0
 0 Ce dxz            44.7       3.1      15.3       1.7       0.0       0.0
 0 Ce dyz             0.3      15.0       1.2       4.0       0.0       0.1
 0 Ce dxy            34.6       2.1       3.6      14.5       0.0       0.0
 0 Ce f0              0.0       0.0       0.0       0.0       0.0      31.5
 0 Ce f+1             0.0       0.0       0.0       0.0       0.0      25.6
 0 Ce f-2             0.0       0.0       0.0       0.0       0.6       0.0
 0 Ce f+3             0.0       0.0       0.0       0.0       0.0      42.7

                     78        79        80        81        82        83   
                   2.38628   2.38628   2.38695   2.38695   2.38695   2.40806
                   0.00000   0.00000   0.00000   0.00000   0.00000   0.00000
                  --------  --------  --------  --------  --------  --------
 0 Ce s               0.0       0.0       0.0       0.0       0.0       0.6
 0 Ce f0              0.6      67.7       0.0       0.0       0.0       0.0
 0 Ce f+1             0.1      11.7      41.6      16.1       4.9       0.0
 0 Ce f-1            37.1       0.3      12.6      46.1       3.8       0.0
 0 Ce f+2             0.0       0.0      13.3       0.6      86.1       0.0
 0 Ce f-2             0.0       0.0       0.0       0.0       0.0      99.4
 0 Ce f+3             0.2      19.5      24.9       9.6       2.9       0.0
 0 Ce f-3            61.9       0.6       7.5      27.6       2.3       0.0

                     84        85        86        87        88        89   
                   3.34981   3.35013   3.35013   3.35013   3.35039   3.35039
                   0.00000   0.00000   0.00000   0.00000   0.00000   0.00000
                  --------  --------  --------  --------  --------  --------
 0 Ce g0             58.3       0.0       0.0       0.0      41.5       0.2
 0 Ce g+1             0.0       4.9      82.5       0.1       0.0       0.0
 0 Ce g-1             0.0       0.0       0.1      87.3       0.0       0.0
 0 Ce g+2             0.0       0.0       0.0       0.0       0.5      99.5
 0 Ce g+3             0.0       0.7      11.8       0.0       0.0       0.0
 0 Ce g-3             0.0       0.0       0.0      12.5       0.0       0.0
 0 Ce g+4            41.7       0.0       0.0       0.0      58.0       0.3
 0 Ce g-4             0.0      94.4       5.5       0.1       0.0       0.0

                     90        91        92        93        94        95   
                   3.35178   3.35178   3.35178   4.70957   4.70957   4.72027
                   0.00000   0.00000   0.00000   0.00000   0.00000   0.00000
                  --------  --------  --------  --------  --------  --------
 0 Ce dz2             0.0       0.0       0.0      73.9      26.1       0.0
 0 Ce dxz             0.0       0.0       0.0       0.0       0.0       6.9
 0 Ce dyz             0.0       0.0       0.0       0.0       0.0       8.9
 0 Ce dx2y2           0.0       0.0       0.0      26.1      73.9       0.0
 0 Ce dxy             0.0       0.0       0.0       0.0       0.0      84.2
 0 Ce g+1             1.1       1.7       9.8       0.0       0.0       0.0
 0 Ce g-1             0.7       9.5       2.4       0.0       0.0       0.0
 0 Ce g-2            86.1      10.9       3.0       0.0       0.0       0.0
 0 Ce g+3             7.6      11.6      68.3       0.0       0.0       0.0
 0 Ce g-3             4.6      66.4      16.6       0.0       0.0       0.0

                     96        97        98        99       100       101   
                   4.72027   4.72027   6.30601   6.30601   6.30601   6.30666
                   0.00000   0.00000   0.00000   0.00000   0.00000   0.00000
                  --------  --------  --------  --------  --------  --------
 0 Ce dxz            29.4      63.7       0.0       0.0       0.0       0.0
 0 Ce dyz            54.9      36.2       0.0       0.0       0.0       0.0
 0 Ce dxy            15.7       0.1       0.0       0.0       0.0       0.0
 0 Ce f0              0.0       0.0       4.3       0.5      95.2       0.0
 0 Ce f+1             0.0       0.0      33.6       2.1       1.8       0.1
 0 Ce f-1             0.0       0.0       2.3      35.2       0.0      62.3
 0 Ce f+2             0.0       0.0       0.0       0.0       0.0       0.1
 0 Ce f+3             0.0       0.0      56.0       3.5       2.9       0.1
 0 Ce f-3             0.0       0.0       3.8      58.6       0.0      37.4

                    102       103       104       105       106       107   
                   6.30666   6.30666   6.31095   6.35385   6.35385   6.35385
                   0.00000   0.00000   0.00000   0.00000   0.00000   0.00000
                  --------  --------  --------  --------  --------  --------
 0 Ce pz              0.0       0.0       0.0      77.4       0.5      22.1
 0 Ce px              0.0       0.0       0.0      10.8      39.4      49.8
 0 Ce py              0.0       0.0       0.0      11.8      60.0      28.1
 0 Ce f+1            32.1      30.3       0.0       0.0       0.0       0.0
 0 Ce f-1             0.2       0.0       0.0       0.0       0.0       0.0
 0 Ce f+2            48.3      51.6       0.0       0.0       0.0       0.0
 0 Ce f-2             0.0       0.0     100.0       0.0       0.0       0.0
 0 Ce f+3            19.3      18.2       0.0       0.0       0.0       0.0
 0 Ce f-3             0.1       0.0       0.0       0.0       0.0       0.0

                    108       109       110       111       112       113   
                   7.92607  12.86854  12.86857  12.86857  12.86857  12.86859
                   0.00000   0.00000   0.00000   0.00000   0.00000   0.00000
                  --------  --------  --------  --------  --------  --------
 0 Ce s             100.0       0.0       0.0       0.0       0.0       0.0
 0 Ce g0              0.0      58.3       0.0       0.0       0.0      27.9
 0 Ce g+1             0.0       0.0      81.2       5.8       0.5       0.0
 0 Ce g-1             0.0       0.0       2.1       7.7      77.7       0.0
 0 Ce g+2             0.0       0.0       0.0       0.0       0.0      32.9
 0 Ce g+3             0.0       0.0      11.6       0.8       0.1       0.0
 0 Ce g-3             0.0       0.0       0.3       1.1      11.1       0.0
 0 Ce g+4             0.0      41.7       0.0       0.0       0.0      39.1
 0 Ce g-4             0.0       0.0       4.9      84.6      10.6       0.0

                    114       115       116       117       118       119   
                  12.86859  12.86871  12.86871  12.86871  15.77120  15.77120
                   0.00000   0.00000   0.00000   0.00000   0.00000   0.00000
                  --------  --------  --------  --------  --------  --------
 0 Ce dz2             0.0       0.0       0.0       0.0      42.2      57.8
 0 Ce dx2y2           0.0       0.0       0.0       0.0      57.8      42.2
 0 Ce g0             13.7       0.0       0.0       0.0       0.0       0.0
 0 Ce g+1             0.0       0.2       2.8       9.5       0.0       0.0
 0 Ce g-1             0.0       8.3       2.6       1.6       0.0       0.0
 0 Ce g+2            67.1       0.0       0.0       0.0       0.0       0.0
 0 Ce g-2             0.0      32.2      56.7      11.2       0.0       0.0
 0 Ce g+3             0.0       1.1      19.6      66.7       0.0       0.0
 0 Ce g-3             0.0      58.2      18.3      11.0       0.0       0.0
 0 Ce g+4            19.2       0.0       0.0       0.0       0.0       0.0

                    120       121       122       123       124       125   
                  15.77300  15.77300  15.77300  15.96819  15.96819  15.96819
                   0.00000   0.00000   0.00000   0.00000   0.00000   0.00000
                  --------  --------  --------  --------  --------  --------
 0 Ce dxz            60.1      24.5      15.4       0.0       0.0       0.0
 0 Ce dyz            33.3      65.2       1.5       0.0       0.0       0.0
 0 Ce dxy             6.6      10.3      83.1       0.0       0.0       0.0
 0 Ce h0              0.0       0.0       0.0      88.1       0.4       1.0
 0 Ce h+1             0.0       0.0       0.0       0.4       0.2      40.8
 0 Ce h-1             0.0       0.0       0.0       0.2      41.0       0.2
 0 Ce h+3             0.0       0.0       0.0       0.1       0.0       5.6
 0 Ce h-3             0.0       0.0       0.0       0.0       5.6       0.0
 0 Ce h+4             0.0       0.0       0.0      10.3       0.0       0.1
 0 Ce h+5             0.0       0.0       0.0       0.6       0.3      52.2
 0 Ce h-5             0.0       0.0       0.0       0.3      52.5       0.2

                    126       127       128       129       130       131   
                  15.96820  15.96820  15.96820  15.96826  15.96826  15.96827
                   0.00000   0.00000   0.00000   0.00000   0.00000   0.00000
                  --------  --------  --------  --------  --------  --------
 0 Ce h0              0.0       0.0       0.0       0.0       0.0       1.7
 0 Ce h+1            12.0       7.0      24.8       0.0       0.0       1.1
 0 Ce h-1             0.0      33.4      10.3       0.0       0.0      11.4
 0 Ce h+2            72.5       7.7      19.8       0.0       0.0       0.0
 0 Ce h-2             0.0       0.0       0.0       3.4      96.6       0.0
 0 Ce h+3             2.6       1.5       5.3       0.0       0.0       6.3
 0 Ce h-3             0.0       7.2       2.2       0.0       0.0      65.1
 0 Ce h+4             0.0       0.0       0.0       0.0       0.0      14.2
 0 Ce h-4             0.0       0.0       0.0      96.6       3.4       0.0
 0 Ce h+5            12.8       7.5      26.6       0.0       0.0       0.0
 0 Ce h-5             0.0      35.8      11.0       0.0       0.0       0.1

                    132       133       134       135       136       137   
                  15.96827  15.96827  30.00657  30.00657  30.00657  42.16990
                   0.00000   0.00000   0.00000   0.00000   0.00000   0.00000
                  --------  --------  --------  --------  --------  --------
 0 Ce s               0.0       0.0       0.0       0.0       0.0     100.0
 0 Ce pz              0.0       0.0      15.7      60.2      24.1       0.0
 0 Ce px              0.0       0.0      72.1      26.3       1.6       0.0
 0 Ce py              0.0       0.0      12.2      13.5      74.3       0.0
 0 Ce h0              8.8       0.0       0.0       0.0       0.0       0.0
 0 Ce h+1             0.3      13.5       0.0       0.0       0.0       0.0
 0 Ce h-1             2.1       1.4       0.0       0.0       0.0       0.0
 0 Ce h+3             1.6      77.0       0.0       0.0       0.0       0.0
 0 Ce h-3            12.0       7.9       0.0       0.0       0.0       0.0
 0 Ce h+4            75.3       0.0       0.0       0.0       0.0       0.0
 0 Ce h+5             0.0       0.1       0.0       0.0       0.0       0.0

                    138       139       140       141       142       143   
                  44.68429  44.68429  44.68429  44.68430  44.68430  44.68430
                   0.00000   0.00000   0.00000   0.00000   0.00000   0.00000
                  --------  --------  --------  --------  --------  --------
 0 Ce h0             82.2       6.0       0.4       0.0       0.0       0.0
 0 Ce h+1             0.0       1.8      40.3       9.9       0.5      33.4
 0 Ce h-1             3.0      37.5       1.6       0.1      43.2       0.4
 0 Ce h+2             0.0       0.0       0.0      77.2       0.0      22.7
 0 Ce h+3             0.0       0.2       4.8       2.1       0.1       7.1
 0 Ce h-3             0.4       4.4       0.2       0.0       9.3       0.1
 0 Ce h+4            10.6       0.8       0.1       0.0       0.0       0.0
 0 Ce h+5             0.0       2.2      50.6      10.6       0.5      35.7
 0 Ce h-5             3.8      47.1       2.0       0.1      46.3       0.5

                    144       145       146       147       148       149   
                  44.68434  44.68434  44.68435  44.68435  44.68435  57.83262
                   0.00000   0.00000   0.00000   0.00000   0.00000   0.00000
                  --------  --------  --------  --------  --------  --------
 0 Ce dz2             0.0       0.0       0.0       0.0       0.0     100.0
 0 Ce h0              0.0       0.0       0.4       1.3       9.7       0.0
 0 Ce h+1             0.0       0.0       3.9       8.1       2.1       0.0
 0 Ce h-1             0.0       0.0       9.7       4.4       0.0       0.0
 0 Ce h-2            94.3       5.7       0.0       0.0       0.0       0.0
 0 Ce h+3             0.0       0.0      23.6      49.4      12.7       0.0
 0 Ce h-3             0.0       0.0      59.0      26.6       0.1       0.0
 0 Ce h+4             0.0       0.0       3.2      10.0      75.4       0.0
 0 Ce h-4             5.7      94.3       0.0       0.0       0.0       0.0
 0 Ce h+5             0.0       0.0       0.1       0.1       0.0       0.0
 0 Ce h-5             0.0       0.0       0.2       0.1       0.0       0.0

                    150       151       152       153       154       155   
                  57.83262  57.83292  57.83292  57.83292  66.24181  66.24182
                   0.00000   0.00000   0.00000   0.00000   0.00000   0.00000
                  --------  --------  --------  --------  --------  --------
 0 Ce dxz             0.0      54.1       9.7      36.2       0.0       0.0
 0 Ce dyz             0.0       4.8      90.2       5.1       0.0       0.0
 0 Ce dx2y2         100.0       0.0       0.0       0.0       0.0       0.0
 0 Ce dxy             0.0      41.2       0.1      58.7       0.0       0.0
 0 Ce g0              0.0       0.0       0.0       0.0      58.3       0.0
 0 Ce g+1             0.0       0.0       0.0       0.0       0.0      11.1
 0 Ce g-1             0.0       0.0       0.0       0.0       0.0      63.5
 0 Ce g+3             0.0       0.0       0.0       0.0       0.0       1.6
 0 Ce g-3             0.0       0.0       0.0       0.0       0.0       9.1
 0 Ce g+4             0.0       0.0       0.0       0.0      41.7       0.0
 0 Ce g-4             0.0       0.0       0.0       0.0       0.0      14.8

                    156       157       158       159       160       161   
                  66.24182  66.24182  66.24183  66.24183  66.24186  66.24186
                   0.00000   0.00000   0.00000   0.00000   0.00000   0.00000
                  --------  --------  --------  --------  --------  --------
 0 Ce g0              0.0       0.0       5.9      35.8       0.0       0.0
 0 Ce g+1            55.0      21.5       0.0       0.0       0.0      11.5
 0 Ce g-1            21.3       2.7       0.0       0.0       0.8       1.0
 0 Ce g+2             0.0       0.0      85.8      14.2       0.0       0.0
 0 Ce g-2             0.0       0.0       0.0       0.0      93.7       0.3
 0 Ce g+3             7.9       3.1       0.0       0.0       0.0      80.6
 0 Ce g-3             3.0       0.4       0.0       0.0       5.5       6.7
 0 Ce g+4             0.0       0.0       8.3      50.1       0.0       0.0
 0 Ce g-4            12.9      72.3       0.0       0.0       0.0       0.0

                    162       163       164       165       166       167   
                  66.24186 139.76244 139.76244 139.76244 208.99702 602.94556
                   0.00000   0.00000   0.00000   0.00000   0.00000   0.00000
                  --------  --------  --------  --------  --------  --------
 0 Ce s               0.0       0.0       0.0       0.0     100.0       0.0
 0 Ce pz              0.0      30.2      69.5       0.3       0.0       0.9
 0 Ce px              0.0      69.4      30.4       0.1       0.0      97.3
 0 Ce py              0.0       0.4       0.1      99.6       0.0       1.8
 0 Ce g+1             1.0       0.0       0.0       0.0       0.0       0.0
 0 Ce g-1            10.8       0.0       0.0       0.0       0.0       0.0
 0 Ce g-2             5.9       0.0       0.0       0.0       0.0       0.0
 0 Ce g+3             6.9       0.0       0.0       0.0       0.0       0.0
 0 Ce g-3            75.4       0.0       0.0       0.0       0.0       0.0

                    168       169       170       171       172       173   
                 602.94556 602.94556 817.67008 2550.58894 6577.93315 14634.25138
                   0.00000   0.00000   0.00000   0.00000   0.00000   0.00000
                  --------  --------  --------  --------  --------  --------
 0 Ce s               0.0       0.0     100.0     100.0     100.0     100.0
 0 Ce pz             93.5       5.6       0.0       0.0       0.0       0.0
 0 Ce px              1.5       1.1       0.0       0.0       0.0       0.0
 0 Ce py              4.9      93.3       0.0       0.0       0.0       0.0

                    174       175   
                 29191.45551 66329.56530
                   0.00000   0.00000
                  --------  --------
 0 Ce s             100.0     100.0


                     *******************************
                     * LOEWDIN POPULATION ANALYSIS *
                     *******************************

----------------------
LOEWDIN ATOMIC CHARGES
----------------------
   0 Ce:    4.000000
   1 Q :   -2.000000
   2 Q :   -2.000000
   3 Q :   -2.000000
   4 Q :   -2.000000

-------------------------------
LOEWDIN REDUCED ORBITAL CHARGES
-------------------------------
  0 Ces       :     9.999917  s :     9.999917
      pz      :     7.999638  p :    23.998913
      px      :     7.999638
      py      :     7.999638
      dz2     :     4.000000  d :    20.001028
      dxz     :     4.000343
      dyz     :     4.000343
      dx2y2   :     4.000000
      dxy     :     4.000343
      f0      :     0.000013  f :     0.000120
      f+1     :     0.000005
      f-1     :     0.000005
      f+2     :     0.000000
      f-2     :     0.000082
      f+3     :     0.000008
      f-3     :     0.000008
      g0      :     0.000000  g :     0.000022
      g+1     :     0.000001
      g-1     :     0.000001
      g+2     :     0.000000
      g-2     :     0.000007
      g+3     :     0.000006
      g-3     :     0.000006
      g+4     :     0.000000
      g-4     :     0.000000
      h0      :     0.000000  h :     0.000000
      h+1     :     0.000000
      h-1     :     0.000000
      h+2     :     0.000000
      h-2     :     0.000000
      h+3     :     0.000000
      h-3     :     0.000000
      h+4     :     0.000000
      h-4     :     0.000000
      h+5     :     0.000000
      h-5     :     0.000000

  1 Q 

  2 Q 

  3 Q 

  4 Q 



                      *****************************
                      * MAYER POPULATION ANALYSIS *
                      *****************************

  NA   - Mulliken gross atomic population
  ZA   - Total nuclear charge
  QA   - Mulliken gross atomic charge
  VA   - Mayer's total valence
  BVA  - Mayer's bonded valence
  FA   - Mayer's free valence

  ATOM       NA         ZA         QA         VA         BVA        FA
  0 Ce    54.0000    58.0000     4.0000    -0.0000     0.0000    -0.0000
  1 Q      0.0000    -2.0000    -2.0000     0.0000     0.0000     0.0000
  2 Q      0.0000    -2.0000    -2.0000     0.0000     0.0000     0.0000
  3 Q      0.0000    -2.0000    -2.0000     0.0000     0.0000     0.0000
  4 Q      0.0000    -2.0000    -2.0000     0.0000     0.0000     0.0000

  Mayer bond orders larger than 0.100000
  => no bond orders to print

-------
TIMINGS
-------

Total SCF time: 0 days 0 hours 0 min 10 sec 

Total time                  ....      10.532 sec
Sum of individual times     ....       9.830 sec  ( 93.3%)

SCF preparation             ....       0.045 sec  (  0.4%)
Fock matrix formation       ....       9.734 sec  ( 92.4%)
  Startup                   ....       0.001 sec  (  0.0% of F)
  Coulomb+Exchange Fock     ....      10.421 sec  (107.1% of F)
Diagonalization             ....       0.000 sec  (  0.0%)
Density matrix formation    ....       0.006 sec  (  0.1%)
Total Energy calculation    ....       0.003 sec  (  0.0%)
Population analysis         ....       0.007 sec  (  0.1%)
Orbital Transformation      ....       0.003 sec  (  0.0%)
Orbital Orthonormalization  ....       0.000 sec  (  0.0%)
DIIS solution               ....       0.014 sec  (  0.1%)
SOSCF solution              ....       0.017 sec  (  0.2%)
Finished LeanSCF after  10.5 sec

Maximum memory used throughout the entire LEANSCF-calculation: 38.4 MB


           ************************************************************
           *        Program running with 4 parallel MPI-processes     *
           *              working on a common directory               *
           ************************************************************

------------------------------------------------------------------------------
                         ORCA PROPERTY INTEGRAL CALCULATIONS
------------------------------------------------------------------------------

GBWName                                   ... start.gbw
Number of atoms                           ...      5
Number of basis functions                 ...    176
Max core memory                           ...   2000 MB

Dipole integrals                          ... YES(DKH)
Quadrupole integrals                      ...  NO
Linear momentum integrals                 ...  NO
Angular momentum integrals                ...  NO
Higher moments length integrals           ...  NO
Higher moments velocity integrals         ...  NO
Kinetic energy integrals                  ...  NO
GIAO right hand sides                     ...  NO
GIAO dipole derivative integrals          ...  NO
SOC integrals                             ...  NO
EPR diamagnetic integrals (GIAO)          ...  NO
EPR gauge integrals                       ...  NO
Field gradient integrals                  ...  NO (   0 nuclei)
Spin-dipole/Fermi contact integrals       ...  NO (   0 nuclei)
Contact density integrals                 ...  NO (   0 nuclei)
Nucleus-orbit integrals                   ...  NO (   0 nuclei)
Geometric perturbations                   ...  NO (   5 nuclei)

DKH transformation order                  ... Second
Note: picture-change corrections are only included
      for the integrals annotated with "YES(DKH)"!

Choice of electric origin   ... Center of mass
Position of electric origin ... (  0.0000,  0.0000,  0.0000) 
Choice of magnetic origin   ... GIAO
Position of magnetic origin ... (  0.0000,  0.0000,  0.0000) 

Calculating integrals                     ... Electric Dipole (Length)     done (  0.0 sec)

Property integrals calculated in   0.0 sec

Maximum memory used throughout the entire PROPINT-calculation: 27.7 MB

-------------------------   --------------------
FINAL SINGLE POINT ENERGY     -8853.243784402712
-------------------------   --------------------



           ************************************************************
           *        Program running with 4 parallel MPI-processes     *
           *              working on a common directory               *
           ************************************************************

------------------------------------------------------------------------------
                              ORCA PROPERTY CALCULATIONS
------------------------------------------------------------------------------

GBWName                                 ... start.gbw
Number of atoms                         ...      5
Number of basis functions               ...    176
Max core memory                         ...   2000 MB

Electric properties:
Dipole moment                           ... YES(DKH)
Quadrupole moment                       ...  NO
Static polarizability (Dipole/Dipole)   ...  NO
Static polarizability (Dipole/Quad.)    ...  NO
Static polarizability (Quad./Quad.)     ...  NO
Static polarizability (Velocity)        ...  NO
Static hyperpolarizability              ...  NO

Atomic electric properties:
Dipole moment                           ...  NO
Quadrupole moment                       ...  NO
Static polarizability                   ...  NO

Choice of electric origin               ... Center of mass
Position of electric origin             ...     0.000000     0.000000     0.000000

General magnetic properties:
Magnetizability                         ...  NO

EPR properties:
g-Tensor (aka g-matrix)                 ...  NO
Zero-Field splitting spin-orbit         ...  NO
Zero-field splitting spin-spin          ...  NO
Hyperfine couplings                     ...  NO (   0 nuclei)
Quadrupole couplings                    ...  NO (   0 nuclei)
Contact density                         ...  NO (   0 nuclei)

NMR properties:
Chemical shifts                         ...  NO (   0 nuclei)
Spin-rotation constants                 ...  NO (   0 nuclei)
Spin-spin couplings                     ...  NO (   0 nuclei,    0 pairs)

Choice of magnetic origin               ... GIAO
Position of magnetic origin             ...     0.000000     0.000000     0.000000

Properties with geometric perturbations:
SCF Hessian                             ...  NO
IR spectrum                             ...  NO
VCD spectrum                            ...  NO
X-ray spectroscopy properties:
SCF XES/XAS/RIXS spectra                ...  NO

SCF SOC stabilization energy            ...  NO
Diagonal Born-Oppenheimer correction    ...  NO
DKH transformation order                ... Second
Note: picture-change corrections are only included
      for the properties annotated with "YES(DKH)"!


-------------
DIPOLE MOMENT
-------------

Method             : SCF
Type of density    : Electron Density
Multiplicity       :   1
Irrep              :   0
Energy             : -8853.2437844027117535 Eh
Basis              : AO
                                X                 Y                 Z
Electronic contribution:      0.000000000       0.000000000       0.000000000
Nuclear contribution   :      0.000000000       0.000000000       0.000000000
                        -----------------------------------------
Total Dipole Moment    :      0.000000000       0.000000000       0.000000000
                        -----------------------------------------
Magnitude (a.u.)       :      0.000000000
Magnitude (Debye)      :      0.000000000



--------------------
Rotational spectrum 
--------------------
 
Rotational constants in cm-1:             0.000000             0.000000             0.000000 
Rotational constants in MHz :             0.000000             0.000000             0.000000 

Dipole components along the rotational axes: 
x,y,z [a.u.] :     0.000000     0.000000     0.000000 
x,y,z [Debye]:     0.000000     0.000000     0.000000 

 

Dipole moment calculation done in   0.0 sec 

[...]
           |   0.714249  -0.000000  -0.000000 | X:   0.714248 |   0.089230   0.970496  -0.223998 |
  90.00000 |  -0.000000   0.714248   0.000000 | Y:   0.714249 |   0.966397  -0.029927   0.255305 |
           |  -0.000000   0.000000   0.714249 | Z:   0.714249 |  -0.241069   0.239251   0.940555 |
-----------|------ x -------- y -------- z ---|---------------|------ x -------- y -------- z ---|
           |   0.725937  -0.000000  -0.000000 | X:   0.725936 |   0.087064   0.968486  -0.233355 |
 100.00000 |  -0.000000   0.725936   0.000000 | Y:   0.725937 |  -0.963885   0.022715  -0.265348 |
           |  -0.000000   0.000000   0.725937 | Z:   0.725937 |  -0.251685   0.248030   0.935487 |
-----------|------ x -------- y -------- z ---|---------------|------ x -------- y -------- z ---|
           |   0.735800  -0.000000  -0.000000 | X:   0.735799 |   0.084702   0.966653  -0.241677 |
 110.00000 |  -0.000000   0.735799   0.000000 | Y:   0.735800 |  -0.961720   0.015872  -0.273576 |
           |  -0.000000   0.000000   0.735800 | Z:   0.735800 |  -0.260617   0.255598   0.930993 |
-----------|------ x -------- y -------- z ---|---------------|------ x -------- y -------- z ---|
           |   0.744172  -0.000000  -0.000000 | X:   0.744172 |   0.082261   0.964974  -0.249116 |
 120.00000 |  -0.000000   0.744172   0.000000 | Y:   0.744172 |  -0.959838   0.009436  -0.280397 |
           |  -0.000000   0.000000   0.744172 | Z:   0.744172 |  -0.268226   0.262177   0.926994 |
-----------|------ x -------- y -------- z ---|---------------|------ x -------- y -------- z ---|
           |   0.751327  -0.000000  -0.000000 | X:   0.751327 |   0.079818   0.963430  -0.255797 |
 130.00000 |  -0.000000   0.751327   0.000000 | Y:   0.751327 |  -0.958189   0.003418  -0.286115 |
           |  -0.000000   0.000000   0.751328 | Z:   0.751328 |  -0.274777   0.267939   0.923421 |
-----------|------ x -------- y -------- z ---|---------------|------ x -------- y -------- z ---|
           |   0.757486  -0.000000  -0.000000 | X:   0.757486 |   0.077420   0.962005  -0.261825 |
 140.00000 |  -0.000000   0.757486   0.000000 | Y:   0.757486 |  -0.956735  -0.002191  -0.290953 |
           |  -0.000000   0.000000   0.757487 | Z:   0.757487 |  -0.280472   0.273023   0.920214 |
-----------|------ x -------- y -------- z ---|---------------|------ x -------- y -------- z ---|
           |   0.762826  -0.000000  -0.000000 | X:   0.762826 |   0.075097   0.960687  -0.267286 |
 150.00000 |  -0.000000   0.762826   0.000000 | Y:   0.762826 |  -0.955443  -0.007411  -0.295082 |
           |  -0.000000   0.000000   0.762827 | Z:   0.762827 |  -0.285462   0.277536   0.917325 |
-----------|------ x -------- y -------- z ---|---------------|------ x -------- y -------- z ---|
           |   0.767489  -0.000000  -0.000000 | X:   0.767489 |   0.072866   0.959463  -0.272252 |
 160.00000 |  -0.000000   0.767489   0.000000 | Y:   0.767489 |  -0.954289  -0.012266  -0.298634 |
           |  -0.000000   0.000000   0.767490 | Z:   0.767490 |  -0.289868   0.281568   0.914711 |
-----------|------ x -------- y -------- z ---|---------------|------ x -------- y -------- z ---|
           |   0.771590  -0.000000  -0.000000 | X:   0.771590 |   0.070735   0.958325  -0.276786 |
 170.00000 |  -0.000000   0.771590   0.000000 | Y:   0.771590 |  -0.953251  -0.016781  -0.301712 |
           |  -0.000000   0.000000   0.771590 | Z:   0.771590 |  -0.293783   0.285188   0.912337 |
-----------|------ x -------- y -------- z ---|---------------|------ x -------- y -------- z ---|
           |   0.775220  -0.000000  -0.000000 | X:   0.775220 |   0.068706   0.957263  -0.280938 |
 180.00000 |  -0.000000   0.775220   0.000000 | Y:   0.775220 |  -0.952314  -0.020983  -0.304396 |
           |  -0.000000   0.000000   0.775221 | Z:   0.775221 |  -0.297282   0.288455   0.910174 |
-----------|------ x -------- y -------- z ---|---------------|------ x -------- y -------- z ---|
           |   0.778456  -0.000000  -0.000000 | X:   0.778455 |   0.066781   0.956272  -0.284753 |
 190.00000 |  -0.000000   0.778455   0.000000 | Y:   0.778456 |  -0.951464  -0.024897  -0.306751 |
           |  -0.000000   0.000000   0.778456 | Z:   0.778456 |  -0.300427   0.291418   0.908196 |
-----------|------ x -------- y -------- z ---|---------------|------ x -------- y -------- z ---|
           |   0.781357  -0.000000  -0.000000 | X:   0.781357 |   0.064956   0.955344  -0.288269 |
 200.00000 |  -0.000000   0.781357   0.000000 | Y:   0.781357 |  -0.950689  -0.028548  -0.308829 |
           |  -0.000000   0.000000   0.781357 | Z:   0.781357 |  -0.303267   0.294115   0.906380 |
-----------|------ x -------- y -------- z ---|---------------|------ x -------- y -------- z ---|
           |   0.783974  -0.000000  -0.000000 | X:   0.783974 |   0.063227   0.954473  -0.291519 |
 210.00000 |  -0.000000   0.783974   0.000000 | Y:   0.783974 |  -0.949980  -0.031957  -0.310671 |
           |  -0.000000   0.000000   0.783974 | Z:   0.783974 |  -0.305843   0.296580   0.904710 |
-----------|------ x -------- y -------- z ---|---------------|------ x -------- y -------- z ---|
           |   0.786348  -0.000000  -0.000000 | X:   0.786348 |   0.061591   0.953655  -0.294530 |
 220.00000 |  -0.000000   0.786348   0.000000 | Y:   0.786348 |  -0.949329  -0.035144  -0.312313 |
           |  -0.000000   0.000000   0.786349 | Z:   0.786349 |  -0.308190   0.298841   0.903168 |
-----------|------ x -------- y -------- z ---|---------------|------ x -------- y -------- z ---|
           |   0.788515  -0.000000  -0.000000 | X:   0.788514 |   0.060042   0.952886  -0.297327 |
 230.00000 |  -0.000000   0.788514   0.000000 | Y:   0.788515 |  -0.948729  -0.038129  -0.313781 |
           |  -0.000000   0.000000   0.788515 | Z:   0.788515 |  -0.310334   0.300923   0.901742 |
-----------|------ x -------- y -------- z ---|---------------|------ x -------- y -------- z ---|
           |   0.790501  -0.000000  -0.000000 | X:   0.790501 |   0.058574   0.952161  -0.299931 |
 240.00000 |  -0.000000   0.790501   0.000000 | Y:   0.790501 |  -0.948175  -0.040928  -0.315101 |
           |  -0.000000   0.000000   0.790501 | Z:   0.790501 |  -0.312302   0.302844   0.900418 |
-----------|------ x -------- y -------- z ---|---------------|------ x -------- y -------- z ---|
           |   0.792331  -0.000000  -0.000000 | X:   0.792331 |   0.057184   0.951477  -0.302361 |
 250.00000 |  -0.000000   0.792331   0.000000 | Y:   0.792331 |  -0.947662  -0.043556  -0.316290 |
           |  -0.000000   0.000000   0.792332 | Z:   0.792332 |  -0.314113   0.304623   0.899187 |
-----------|------ x -------- y -------- z ---|---------------|------ x -------- y -------- z ---|
           |   0.794026  -0.000000  -0.000000 | X:   0.794026 |   0.055866   0.950830  -0.304634 |
 260.00000 |  -0.000000   0.794026   0.000000 | Y:   0.794026 |  -0.947185  -0.046028  -0.317367 |
           |  -0.000000   0.000000   0.794027 | Z:   0.794027 |  -0.315784   0.306275   0.898040 |
-----------|------ x -------- y -------- z ---|---------------|------ x -------- y -------- z ---|
           |   0.795603  -0.000000  -0.000000 | X:   0.795603 |   0.054616   0.950218  -0.306763 |
 270.00000 |  -0.000000   0.795603   0.000000 | Y:   0.795603 |  -0.946741  -0.048357  -0.318345 |
           |  -0.000000   0.000000   0.795604 | Z:   0.795604 |  -0.317331   0.307811   0.896969 |
-----------|------ x -------- y -------- z ---|---------------|------ x -------- y -------- z ---|
           |   0.797077  -0.000000  -0.000000 | X:   0.797077 |   0.053428   0.949638  -0.308761 |
 280.00000 |  -0.000000   0.797077   0.000000 | Y:   0.797077 |  -0.946326  -0.050553  -0.319235 |
           |  -0.000000   0.000000   0.797077 | Z:   0.797077 |  -0.318767   0.309245   0.895966 |
-----------|------ x -------- y -------- z ---|---------------|------ x -------- y -------- z ---|
           |   0.798461  -0.000000  -0.000000 | X:   0.798460 |   0.052300   0.949088  -0.310640 |
 290.00000 |  -0.000000   0.798460   0.000000 | Y:   0.798460 |  -0.945938  -0.052627  -0.320049 |
           |  -0.000000   0.000000   0.798461 | Z:   0.798461 |  -0.320102   0.310585   0.895026 |
-----------|------ x -------- y -------- z ---|---------------|------ x -------- y -------- z ---|
           |   0.799765  -0.000000  -0.000000 | X:   0.799764 |   0.051227   0.948565  -0.312410 |
 300.00000 |  -0.000000   0.799765   0.000000 | Y:   0.799765 |  -0.945575  -0.054588  -0.320794 |
           |  -0.000000   0.000000   0.799765 | Z:   0.799765 |  -0.321348   0.311840   0.894143 |
-------------------------------------------------------------------------------------------------|
Computation of the magnetization torque ... skipped by the user
Computation of the molar magnetization ... skipped by the user

-@-#-$-%-&-*--@-#-$-%-&-*--@-#-$-%-&-*--@-#-$-%-&-*--@-#-$-%-&-*--@-#-$-%-&-*--@-#-$-%-&-*--@-#-$-%-&-*--@-#-$-%-&-*--@-#-$-%-&-*-

          HAPPY   LANDING !!!   SINGLE_ANISO ENDED  OK !

-*-&-%-$-#-@--*-&-%-$-#-@--*-&-%-$-#-@--*-&-%-$-#-@--*-&-%-$-#-@--*-&-%-$-#-@--*-&-%-$-#-@--*-&-%-$-#-@--*-&-%-$-#-@--*-&-%-$-#-@-
 SINGLE_ANISO finished sucessfully!



-------------------------------------------------------------------------------
                              ORCA-AILFT
-------------------------------------------------------------------------------

[file orca_tools/SHARK/shark_setup_ri.cpp, line 82]: Error (SHARK/SelectAuxBasis): AuxC requested but not present


ORCA finished by error termination in AILFT
Calling Command: /home/dumitruc/Programs/orca610/orca_ailft cerium_job2 
  .... trying to continue anyways

--------------
CASSCF TIMINGS
--------------

Total time                       ...        1.0 sec
Sum of individual times          ...        1.0 sec ( 99.4%)

Calculation of AO operators
Calculation of MO transformed quantities
Configuration interaction steps
   CI-setup phase                ...        0.8 sec ( 80.4%)
Orbital improvement steps
Properties                       ...        0.2 sec ( 18.8%)
   SOC integral calculation      ...        0.0 sec (  0.0%)
   SSC RMEs (incl. integrals)    ...        0.0 sec (  0.0%)
   SOC RMEs                      ...        0.0 sec (  0.0%)

Maximum memory used throughout the entire CASSCF-calculation: 47.2 MB

-------------------------   --------------------
FINAL SINGLE POINT ENERGY     -8853.123221522808
-------------------------   --------------------



           ************************************************************
           *        Program running with 4 parallel MPI-processes     *
           *              working on a common directory               *
           ************************************************************

------------------------------------------------------------------------------
                              ORCA PROPERTY CALCULATIONS
------------------------------------------------------------------------------

GBWName                                 ... cerium_job2.gbw
Number of atoms                         ...      5
Number of basis functions               ...    176
Max core memory                         ...   2000 MB

Electric properties:
Dipole moment                           ... YES(DKH)
Quadrupole moment                       ...  NO
Static polarizability (Dipole/Dipole)   ...  NO
Static polarizability (Dipole/Quad.)    ...  NO
Static polarizability (Quad./Quad.)     ...  NO
Static polarizability (Velocity)        ...  NO
Static hyperpolarizability              ...  NO

Atomic electric properties:
Dipole moment                           ...  NO
Quadrupole moment                       ...  NO
Static polarizability                   ...  NO

Choice of electric origin               ... Center of mass
Position of electric origin             ...     0.000000     0.000000     0.000000

General magnetic properties:
Magnetizability                         ...  NO

EPR properties:
g-Tensor (aka g-matrix)                 ...  NO
Zero-Field splitting spin-orbit         ...  NO
Zero-field splitting spin-spin          ...  NO
Hyperfine couplings                     ...  NO (   0 nuclei)
Quadrupole couplings                    ...  NO (   0 nuclei)
Contact density                         ...  NO (   0 nuclei)

NMR properties:
Chemical shifts                         ...  NO (   0 nuclei)
Spin-rotation constants                 ...  NO (   0 nuclei)
Spin-spin couplings                     ...  NO (   0 nuclei,    0 pairs)

Choice of magnetic origin               ... Center of nuclear charge
Position of magnetic origin             ...     0.000000     0.000000     0.000000

Properties with geometric perturbations:
SCF Hessian                             ...  NO
IR spectrum                             ...  NO
VCD spectrum                            ...  NO
X-ray spectroscopy properties:
SCF XES/XAS/RIXS spectra                ...  NO

SCF SOC stabilization energy            ...  NO
Diagonal Born-Oppenheimer correction    ...  NO
DKH transformation order                ... Second
Note: picture-change corrections are only included
      for the properties annotated with "YES(DKH)"!


-------------
DIPOLE MOMENT
-------------

Method             : CASSCF/ALL STATES AVERAGE
Type of density    : Electron Density
Level              : Unrelaxed density
State              :  -1
Multiplicity       :  -1
Irrep              :   0
Energy             : -8853.1168266218737699 Eh
Basis              : AO
                                X                 Y                 Z
Electronic contribution:      0.000000000       0.000000000       0.000000000
Nuclear contribution   :      0.000000000       0.000000000       0.000000000
                        -----------------------------------------
Total Dipole Moment    :      0.000000000       0.000000000       0.000000000
                        -----------------------------------------
Magnitude (a.u.)       :      0.000000000
Magnitude (Debye)      :      0.000000000



--------------------
Rotational spectrum 
--------------------
 
Rotational constants in cm-1:             0.000000             0.000000             0.000000 
Rotational constants in MHz :             0.000000             0.000000             0.000000 

Dipole components along the rotational axes: 
x,y,z [a.u.] :     0.000000     0.000000     0.000000 
x,y,z [Debye]:     0.000000     0.000000     0.000000 

 

Dipole moment calculation done in   0.0 sec 

Maximum memory used throughout the entire PROP-calculation: 19.3 MB

--------------------------------
SUGGESTED CITATIONS FOR THIS RUN
--------------------------------

Below you find a list of papers that are relevant to this ORCA run
We neither can nor want to force you to cite these papers, but we appreciate if you do
You receive ORCA, which is the product of decades of hard work by many enthusiastic individuals, for free
The only thing we kindly ask in return is that you cite our papers,
We deeply appreciate it, if you show your appreciation for ORCA by not just citing the generic ORCA reference.

Please note that relegating all ORCA citations to the supporting information does *not* help us.
SI sections are not indexed - citations you put there will not count into any citation statistics
But we need these citations in order to attract the funding resources that allow us to do what we are doing

Therefore, if you are a happy ORCA user, please consider citing a few of the papers listed below in the main body of your paper

In addition to the list printed below, the program has created the file cerium_job2.bibtex that contains the list in bibtex format
You can import this file easily into all common literature databanks and citation aid programs


List of essential papers. We consider these as the minimum necessary citations

  1. Neese, F.
     Software update: the ORCA program system, version 6.0
     WIRES Comput. Molec. Sci. 2025 15(1), e70019
     doi.org/10.1002/wcms.7019

List of papers to cite with high priority. The work reported in these papers was absolutely
necessary for this run to complete.
Our perspective: the developers of density functionals and basis sets usually get cited in chemistry papers
Good! But without the algorithms to do something with them, the functionals or basis sets would not do anything.
Hence, in our opinion, the algorithm design and method developments papers are equally worthy of getting cited

  1. Ganyushin, D.; Neese, F.
     First-principles calculations of zero-field splitting parameters
     J. Chem. Phys. 2006 125(2), Art. No. 024103
     doi.org/10.1063/1.2213976
  2. Atanasov, M.; Ganyushin, D.; Sivalingam, K.; Neese, F.
     A Modern First-Principles View on Ligand Field Theory Through the Eyes of Correlated Multireference Wavefunctions
     Struct. Bond. 2012 142 , 149-220
     doi.org/10.1007/430_2011_57
  3. Kollmar, C.; Sivalingam, K.; Helmich-Paris, B.; Angeli, C.; Neese, F.
     A perturbation-based super-CI approach for the orbital optimization of a CASSCF wave function
     J. Comput. Chem. 2019 40 , 1463-1470
     doi.org/10.1002/jcc.25801
  4. Lang, L.; Neese, F.
     Spin-dependent properties in the framework of the dynamic correlation dressed complete active space method
     J. Chem. Phys. 2019 150 , 
     doi.org/10.1063/1.5085203
  5. Neese, F.
     The SHARK Integral Generation and Digestion System
     J. Comp. Chem. 2022 44(3), 381
     doi.org/10.1002/jcc.26942
  6. Ugandi, M.; Roemelt, M.
     A recursive formulation of one-electron coupling coefficients for spin-adapted configuration interaction calculations featuring many unpaired electrons
     Int. J. Quantum Chem. 2023 123 , e27045
     doi.org/10.1002/qua.27045

List of suggested additional citations. These are papers that are important in the 'surrounding' of 
of this run, or papers that preceded the highly important papers. If you like your results we are grateful for a citation.

  1. Neese, F.
     The ORCA program system
     WIRES Comput. Molec. Sci. 2012 2(1), 73-78
     doi.org/10.1002/wcms.81
  2. Aravena, D.; Atanasov, M.; Neese, F.
     Periodic Trends in Lanthanide Compounds through the Eyes of Multireference ab Initio Theory
     Inorg. Chem. 2016 55(9), 4457-4469
     doi.org/10.1021/acs.inorgchem.6b00244
  3. Jung, J.L.; Atanasov, M.; Neese, F.
     Ab Initio Ligand-Field Theory Analysis and Covalency Trends in Actinide and Lanthanide Free Ions and Octahedral Complexes
     Inorg. Chem. 2016 56(15), 8802-8816
  4. Neese, F.
     Software update: the ORCA program system, version 4.0
     WIRES Comput. Molec. Sci. 2018 8(1), 1-6
     doi.org/10.1002/wcms.1327
  5. Neese, F.; Wennmohs, F.; Becker, U.; Riplinger, C.
     The ORCA quantum chemistry program package
     J. Chem. Phys. 2020 152(22), 224108
     doi.org/10.1063/5.0004608
  6. Neese, F.
     Software update: The ORCA program system—Version 5.0
     WIRES Comput. Molec. Sci. 2022 12(1), e1606
     doi.org/10.1002/wcms.1606

List of optional additional citations

  1. Neese, F.
     Approximate second-order SCF convergence for spin unrestricted wavefunctions
     Chem. Phys. Lett. 2000 325(1-3), 93-98
     doi.org/10.1016/s0009-2614(00)00662-x

Timings for individual modules:

Sum of individual times          ...       59.407 sec (=   0.990 min)
Startup calculation              ...        0.344 sec (=   0.006 min)   0.6 %
Relativistic integrals           ...        0.242 sec (=   0.004 min)   0.4 %
SCF iterations                   ...        0.164 sec (=   0.003 min)   0.3 %
CASSCF iterations                ...       42.997 sec (=   0.717 min)  72.4 %
Property integrals               ...       15.490 sec (=   0.258 min)  26.1 %
Property calculations            ...        0.170 sec (=   0.003 min)   0.3 %



                             ****ORCA TERMINATED NORMALLY****
TOTAL RUN TIME: 0 days 0 hours 1 minutes 11 seconds 578 msec
