
                                 *****************
                                 * O   R   C   A *
                                 *****************

                                            #,                                       
                                            ###                                      
                                            ####                                     
                                            #####                                    
                                            ######                                   
                                           ########,                                 
                                     ,,################,,,,,                         
                               ,,#################################,,                 
                          ,,##########################################,,             
                       ,#########################################, ''#####,          
                    ,#############################################,,   '####,        
                  ,##################################################,,,,####,       
                ,###########''''           ''''###############################       
              ,#####''   ,,,,##########,,,,          '''####'''          '####       
            ,##' ,,,,###########################,,,                        '##       
           ' ,,###''''                  '''############,,,                           
         ,,##''                                '''############,,,,        ,,,,,,###''
      ,#''                                            '''#######################'''  
     '                                                          ''''####''''         
             ,#######,   #######,   ,#######,      ##                                
            ,#'     '#,  ##    ##  ,#'     '#,    #''#        ,####,    ,#,          
            ##       ##  ##   ,#'  ##            #'  '#       #'       ,# #          
            ##       ##  #######   ##           ,######,      #####,      #          
            '#,     ,#'  ##    ##  '#,     ,#' ,#      #,     #,   #      #          
             '#######'   ##     ##  '#######'  #'      '#     '####' #    #          



                #########################################################
                #                        -***-                          #
                #          Department of theory and spectroscopy        #
                #                                                       #
                #                      Frank Neese                      #
                #                                                       #
                #     Directorship, Architecture, Infrastructure        #
                #                    SHARK, DRIVERS                     #
                #        Core code/Algorithms in most modules           #
                #                                                       #
                #        Max Planck Institute fuer Kohlenforschung      #
                #                Kaiser Wilhelm Platz 1                 #
                #                 D-45470 Muelheim/Ruhr                 #
                #                      Germany                          #
                #                                                       #
                #                  All rights reserved                  #
                #                        -***-                          #
                #########################################################


                         Program Version 6.1.0  -  RELEASE   -
                                (GIT: $679e74b$)
                          ($2025-06-10 18:02:51 +0200$)


 With contributions from (in alphabetic order):
[Max-Planck-Institut fuer Kohlenforschung]                               
  Daniel Aravena         : Magnetic Suceptibility                        
  Michael Atanasov       : Ab Initio Ligand Field Theory (pilot matlab implementation)
  Alexander A. Auer      : GIAO ZORA, VPT2 properties, NMR spectrum      
  Ute Becker             : All parallelization in ORCA, NUMFREQ, NUMCALC 
  Giovanni Bistoni       : ED, misc. LED, open-shell LED, HFLD           
  Dmytro Bykov           : pre 5.0 version of the SCF Hessian            
  Marcos Casanova-Páez   : Triplet and SCS-CIS(D). UHF-(DLPNO)-IP/EA/STEOM-CCSD. UHF-CVS-IP/STEOM-CCSD   
  Vijay G. Chilkuri      : MRCI spin determinant printing, contributions to CSF-ICE 
  Pauline Colinet        : FMM embedding                                 
  Dipayan Datta          : RHF DLPNO-CCSD density                        
  Achintya Kumar Dutta   : EOM-CC, STEOM-CC                              
  Nicolas Foglia         : Exact transition moments, OPA infrastructure, MCD improvements    
  Dmitry Ganyushin       : Spin-Orbit,Spin-Spin,Magnetic field MRCI      
  Miquel Garcia-Rates    : C-PCM and meta-GGA Hessian, CCSD/C-PCM, Gaussian charge scheme 
  Tiago L. C. Gouveia    : GS-ROHF, GS-ROCIS                             
  Yang Guo               : DLPNO-NEVPT2, F12-NEVPT2, CIM, IAO-localization        
  Andreas Hansen         : Spin unrestricted coupled pair/coupled cluster methods 
  Ingolf Harden          : AUTO-CI MPn and infrastructure                
  Benjamin Helmich-Paris : MC-RPA, TRAH-(SCF,CASSCF), AVAS, COSX integrals, SCF dyn. polar., MC-PDFT, srDFT 
  Lee Huntington         : MR-EOM, pCC                                   
  Robert Izsak           : Overlap fitted RIJCOSX, COSX-SCS-MP3, EOM     
  Riya Kayal             : Wick's Theorem for AUTO-CI, AUTO-CI UHF-CCSDT 
  Emily Kempfer          : AUTO-CI RHF CISDT and CCSDT, approximate NEVPT4
  Christian Kollmar      : KDIIS, OOCD, Brueckner-CCSD(T), CCSD density, CASPT2, CASPT2-K, improved NEVPT2 
  Axel Koslowski         : Symmetry handling                             
  Simone Kossmann        : meta-GGA functionals, TD-DFT gradient, OOMP2, (MP2 Hessian; deprecated post 5.0) 
  Lucas Lang             : DCDCAS, Hyperfine gauge corrections, ICE-SOC+SSC
  Marvin Lechner         : AUTO-CI (C++ implementation), FIC-MRCC        
  Spencer Leger          : CASSCF response                               
  Dagmar Lenk            : GEPOL surface, SMD, ORCA-2-JSON               
  Dimitrios Liakos       : Extrapolation schemes; Compound Job, Property file
  Dimitrios Manganas     : Further ROCIS development; embedding schemes. LFT, Crystal Embedding 
  Dimitrios Pantazis     : SARC Basis sets                               
  Anastasios Papadopoulos: AUTO-CI, single reference methods and gradients 
  Taras Petrenko         : pre 6.0 DFT Hessian and TD-DFT gradient,  ECA, NRVS 
  Petra Pikulova         : Analytic Raman intensities                    
  Peter Pinski           : DLPNO-MP2, DLPNO-MP2 Gradient                 
  Shashank Vittal Rao    : ES-AILFT, MagRelax                            
  Christoph Reimann      : Effective Core Potentials                     
  Marius Retegan         : Local ZFS, SOC                                
  Christoph Riplinger    : Optimizer, TS searches, QM/MM, DLPNO-CCSD(T), (RO)-DLPNO pert. Triples 
  Michael Roemelt        : Original ROCIS implementation, recursive CI coupling coefficients
  Masaaki Saitow         : Open-shell DLPNO-CCSD energy and density      
  Barbara Sandhoefer     : DKH picture change effects                    
  Yorick L. A. Schmerwitz: GMF and freeze-and-release deltaSCF, NEB S-IDPP initial path                    
  Kantharuban Sivalingam : CASSCF convergence/infrastructure, NEVPT2, NEVPT3, NEVPT4(SD), FIC-MRCI and CEPA variants
  Bernardo de Souza      : ESD, SOC TD-DFT                               
  Georgi L. Stoychev     : AutoAux, RI-MP2 NMR, DLPNO-MP2 response, X2C  
  Van Anh Tran           : RI-MP2 g-tensors                              
  Willem Van den Heuvel  : Paramagnetic NMR                              
  Zikuan Wang            : NOTCH, Electric field optimization            
  Frank Wennmohs         : Technical directorship and infrastructure     
  Hang Xu                : AUTO-CI-Response properties                   
                                                                         
[FACCTs GmbH]                                                            
  Markus Bursch, Nicolas Foglia, Miquel Garcia-Rates, Ingolf Harden, Hagen Neugebauer, Anastasios Papadopoulos, 
  Christoph Riplinger, Bernardo de Souza, Georgi L. Stoychev                                                    
                                                                 
  APM, various basis sets, CI-OPT, improved COSX, DLPNO-Multilevel,           
  DOCKER, DRACO, updates on ESD, Fragmentator, GOAT, IRC, LR-CPCM, L-BFGS, MBIS, meta-GGA TD-DFT gradient, ML-optimized integration grids, 
  MM, NACMEs, nearIR, NEB, NEB-TS, NL-DFT gradient (VV10), 2- and 3-layer-ONIOM, interface openCOSMO-RS, QMMM,   
  Crystal-QMMM, RESP, rigid body optimization, SF, symmetry and pop. for TD-DFT, various functionals, SOLVATOR                                   
                                                                         
[Other institutions]                                                     
  V. Asgeirsson          : NEB                                           
  Christoph Bannwarth    : sTDA-DFT, sTD-DFT, PBEh-3c, B97-3c, D3        
  Giovanni Bistoni       : ETS/NOCV, ADLD/ADEX, COVALED                  
  Martin Brehm           : Molecular dynamics                            
  Ronald Cardenas        : ETS/NOCV                                      
  Martina Colucci        : COVALED                                       
  Sebastian Ehlert       : rSCAN, r2SCAN, r2SCAN-3c, D4, dhf basis sets  
  Marvin Friede          : D4 for Fr, Ra, Ac-Lr                          
  Lars Goerigk           : TD-DFT with DH, B97 family of functionals     
  Stefan Grimme          : VdW corrections, initial TS optimization, DFT functionals, gCP, sTDA/sTD-DF 
  Waldemar Hujo          : DFT-NL                                        
  H. Jonsson             : NEB                                           
  Holger Kruse           : gCP                                           
  Marcel Mueller         : wB97X-3c, vDZP basis set                      
  Hagen Neugebauer       : wr2SCAN, Native XTB                           
  Gianluca Regni         : ADLD/ADEX                                     
  Tobias Risthaus        : pre 6.0 range-separated hybrid DFT and stability analysis
  Lukas Wittmann         : regularized MP2, r2SCAN double-hybrids, wr2SCAN        
                                                                         
We gratefully acknowledge several colleagues who have allowed us to      
interface, adapt or use parts of their codes:                            
  Ed Valeev, F. Pavosevic, A. Kumar             : LibInt (2-el integral package), F12 methods 
  Garnet Chan, S. Sharma, J. Yang, R. Olivares  : DMRG                   
  Ulf Ekstrom                                   : XCFun DFT Library      
  Mihaly Kallay                                 : mrcc  (arbitrary order and MRCC methods)
  Frank Weinhold                                : gennbo (NPA and NBO analysis)           
  Simon Mueller                                 : openCOSMO-RS                            
  Christopher J. Cramer and Donald G. Truhlar   : smd solvation model                     
  S Lehtola, MJT Oliveira, MAL Marques          : LibXC Library                           
  Liviu Ungur et al                             : ANISO software                          


 Your calculation uses the libint2 library for the computation of 2-el integrals
 For citations please refer to: http://libint.valeyev.net

 Your ORCA version has been built with support for libXC version: 7.0.0
 For citations please refer to: https://libxc.gitlab.io

 This ORCA versions uses:
   CBLAS   interface :  Fast vector & matrix operations
   LAPACKE interface :  Fast linear algebra routines
   SCALAPACK package :  Parallel linear algebra routines
   Shared memory     :  Shared parallel matrices
   BLAS/LAPACK       :  OpenBLAS 0.3.29  USE64BITINT DYNAMIC_ARCH NO_AFFINITY Haswell SINGLE_THREADED
        Core in use  :  Haswell
   Copyright (c) 2011-2014, The OpenBLAS Project


  ***********************************
  * Starting time: Mon Nov 10 13:38:17 2025
  * Host name:     pauli
  * Process ID:    21959
  * Working dir.:  /media/scratch/dumitruc/acero-cas17-nori.23347
  ***********************************

NOTE: MaxCore=4000 MB was set to SCF,MP2,MDCI,CIPSI,MRCI,RASCI and CIS
      => If you want to overwrite this, your respective input block should be placed after the MaxCore statement
================================================================================

----- Orbital basis set information -----
Your calculation utilizes the basis: DKH-def2-TZVP
   Exponents from def2-TZVP [F. Weigend and R. Ahlrichs, Phys. Chem. Chem. Phys. 7, 3297 (2005)],
   recontracted for DKH2 by D. A. Pantazis.

The basis set includes element-specific modifications.

Your calculation utilizes the basis: SARC2-DKH-QZVP
   D. Aravena, F. Neese and D. A. Pantazis, J. Chem. Theory Comput. 12, 1148 (2016).

----- AuxJ basis set information -----
Your calculation utilizes the AutoAux generation procedure.
  G. L. Stoychev, A. A. Auer, F. Neese, J. Chem. Theory Comput. 13, 554 (2017)

The basis set includes element-specific modifications.

----- AuxC basis set information -----
Your calculation utilizes the AutoAux generation procedure.
  G. L. Stoychev, A. A. Auer, F. Neese, J. Chem. Theory Comput. 13, 554 (2017)

----- AuxJK basis set information -----
Your calculation utilizes the AutoAux generation procedure.
  G. L. Stoychev, A. A. Auer, F. Neese, J. Chem. Theory Comput. 13, 554 (2017)

----- AuxX basis set information -----
Your calculation utilizes the AutoAux generation procedure.
  G. L. Stoychev, A. A. Auer, F. Neese, J. Chem. Theory Comput. 13, 554 (2017)

================================================================================
                                        WARNINGS
                       Please study these warnings very carefully!
================================================================================


CAS(DoGTensor), 
CAS(DoSusceptibility), calculation requested: setting Magnetic origin to Nuclear Charge center
WARNING: In AILFT F2ff/F4ff remain undefined when considering only the HS Multiplicity block
         Be Careful with the results!
TIP:     If possible use in addition a LS Multiplicity Block

================================================================================
                                       INPUT FILE
================================================================================
NAME = acero.inp
|  1> ! DKH
|  2> ! DKH-def2-TZVP
|  3> ! RIJCOSX AUTOAUX
|  4> ! VeryTightSCF
|  5> ! DEFGRID3
|  6> ! NOFROZENCORE
|  7> ! PAL8
|  8> ! NORI
|  9> 
| 10> ! MOREAD
| 11> %moinp "/media/work/dumitruc/project-rennes/acero/basis-tz-qz/guess.gbw"
| 12> 
| 13> %maxcore 4000
| 14> 
| 15> %output
| 16>   Print[ P_OrbEn] 2
| 17>   Print[ P_ReducedOrbPopMO_M] 1
| 18> end
| 19> 
| 20> %basis
| 21>   newGTO    Ce "SARC2-DKH-QZVP" end
| 22>   newAuxGTO Ce "AutoAux" end
| 23> end
| 24> 
| 25> %rel
| 26>   method dkh
| 27>   picturechange 2
| 28> end
| 29> 
| 30> %casscf
| 31>   nel     1
| 32>   norb    7
| 33>   mult    2
| 34>   nroots  7
| 35>   maxiter 120
| 36>   actorbs forbs
| 37>   printwf det
| 38>   ci
| 39>    TPrintWF   0
| 40>    NGuessMat  2400
| 41>    MaxIter    2400
| 42>   end
| 43>   rel
| 44>    dosoc true
| 45>    tprint 0.000000001
| 46>    dosusceptibility true
| 47>    MAGTemperatureMIN 1.8
| 48>    MAGTemperatureMAX 300
| 49>    gtensor true
| 50>   end
| 51>   aniso
| 52>     doaniso true
| 53>     quax 4
| 54>     mltp 2, 2, 2
| 55>     CRYS_element "Ce"
| 56>     CRYS_charge 3
| 57>     TINT 0, 300, 301
| 58>   end
| 59> end
| 60> 
| 61> *xyz -1 2
| 62> Ce    0.000000000000      0.000000000000      0.000000000000
| 63> C     1.834414297760      0.000000000000     -2.040000000000
| 64> C     1.297126789452     -1.297126789452     -2.040000000000
| 65> C     0.000000000000     -1.834414297760     -2.040000000000
| 66> H     2.914735082122      0.000000000000     -1.956467000000
| 67> H     2.061028941931     -2.061028941931     -1.956467000000
| 68> H     0.000000000000     -2.914735082122     -1.956467000000
| 69> C    -1.834414297760      0.000000000000     -2.040000000000
| 70> C     1.834414297760      0.000000000000      2.040000000000
| 71> C    -1.834414297760      0.000000000000      2.040000000000
| 72> C    -1.297126789452      1.297126789452     -2.040000000000
| 73> C     1.297126789452      1.297126789452      2.040000000000
| 74> C    -1.297126789452     -1.297126789452      2.040000000000
| 75> C    -1.297126789452      1.297126789452      2.040000000000
| 76> C     1.297126789452     -1.297126789452      2.040000000000
| 77> C    -1.297126789452     -1.297126789452     -2.040000000000
| 78> C     1.297126789452      1.297126789452     -2.040000000000
| 79> C     0.000000000000      1.834414297760     -2.040000000000
| 80> C     0.000000000000      1.834414297760      2.040000000000
| 81> C     0.000000000000     -1.834414297760      2.040000000000
| 82> H    -2.914735082122      0.000000000000     -1.956467000000
| 83> H     2.914735082122      0.000000000000      1.956467000000
| 84> H    -2.914735082122      0.000000000000      1.956467000000
| 85> H    -2.061028941931      2.061028941931     -1.956467000000
| 86> H     2.061028941931      2.061028941931      1.956467000000
| 87> H    -2.061028941931     -2.061028941931      1.956467000000
| 88> H    -2.061028941931      2.061028941931      1.956467000000
| 89> H     2.061028941931     -2.061028941931      1.956467000000
| 90> H    -2.061028941931     -2.061028941931     -1.956467000000
| 91> H     2.061028941931      2.061028941931     -1.956467000000
| 92> H     0.000000000000      2.914735082122     -1.956467000000
| 93> H     0.000000000000      2.914735082122      1.956467000000
| 94> H     0.000000000000     -2.914735082122      1.956467000000
| 95> *
| 96> 
| 97> 
| 98>                          ****END OF INPUT****
================================================================================

                       ****************************
                       * Single Point Calculation *
                       ****************************

---------------------------------
CARTESIAN COORDINATES (ANGSTROEM)
---------------------------------
  Ce     0.000000    0.000000    0.000000
  C      1.834414    0.000000   -2.040000
  C      1.297127   -1.297127   -2.040000
  C      0.000000   -1.834414   -2.040000
  H      2.914735    0.000000   -1.956467
  H      2.061029   -2.061029   -1.956467
  H      0.000000   -2.914735   -1.956467
  C     -1.834414    0.000000   -2.040000
  C      1.834414    0.000000    2.040000
  C     -1.834414    0.000000    2.040000
  C     -1.297127    1.297127   -2.040000
  C      1.297127    1.297127    2.040000
  C     -1.297127   -1.297127    2.040000
  C     -1.297127    1.297127    2.040000
  C      1.297127   -1.297127    2.040000
  C     -1.297127   -1.297127   -2.040000
  C      1.297127    1.297127   -2.040000
  C      0.000000    1.834414   -2.040000
  C      0.000000    1.834414    2.040000
  C      0.000000   -1.834414    2.040000
  H     -2.914735    0.000000   -1.956467
  H      2.914735    0.000000    1.956467
  H     -2.914735    0.000000    1.956467
  H     -2.061029    2.061029   -1.956467
  H      2.061029    2.061029    1.956467
  H     -2.061029   -2.061029    1.956467
  H     -2.061029    2.061029    1.956467
  H      2.061029   -2.061029    1.956467
  H     -2.061029   -2.061029   -1.956467
  H      2.061029    2.061029   -1.956467
  H      0.000000    2.914735   -1.956467
  H      0.000000    2.914735    1.956467
  H      0.000000   -2.914735    1.956467

----------------------------
CARTESIAN COORDINATES (A.U.)
----------------------------
  NO LB      ZA    FRAG     MASS         X           Y           Z
   0 Ce   58.0000    0   140.120    0.000000    0.000000    0.000000
   1 C     6.0000    0    12.011    3.466541    0.000000   -3.855041
   2 C     6.0000    0    12.011    2.451214   -2.451214   -3.855041
   3 C     6.0000    0    12.011    0.000000   -3.466541   -3.855041
   4 H     1.0000    0     1.008    5.508051    0.000000   -3.697187
   5 H     1.0000    0     1.008    3.894780   -3.894780   -3.697187
   6 H     1.0000    0     1.008    0.000000   -5.508051   -3.697187
   7 C     6.0000    0    12.011   -3.466541    0.000000   -3.855041
   8 C     6.0000    0    12.011    3.466541    0.000000    3.855041
   9 C     6.0000    0    12.011   -3.466541    0.000000    3.855041
  10 C     6.0000    0    12.011   -2.451214    2.451214   -3.855041
  11 C     6.0000    0    12.011    2.451214    2.451214    3.855041
  12 C     6.0000    0    12.011   -2.451214   -2.451214    3.855041
  13 C     6.0000    0    12.011   -2.451214    2.451214    3.855041
  14 C     6.0000    0    12.011    2.451214   -2.451214    3.855041
  15 C     6.0000    0    12.011   -2.451214   -2.451214   -3.855041
  16 C     6.0000    0    12.011    2.451214    2.451214   -3.855041
  17 C     6.0000    0    12.011    0.000000    3.466541   -3.855041
  18 C     6.0000    0    12.011    0.000000    3.466541    3.855041
  19 C     6.0000    0    12.011    0.000000   -3.466541    3.855041
  20 H     1.0000    0     1.008   -5.508051    0.000000   -3.697187
  21 H     1.0000    0     1.008    5.508051    0.000000    3.697187
  22 H     1.0000    0     1.008   -5.508051    0.000000    3.697187
  23 H     1.0000    0     1.008   -3.894780    3.894780   -3.697187
  24 H     1.0000    0     1.008    3.894780    3.894780    3.697187
  25 H     1.0000    0     1.008   -3.894780   -3.894780    3.697187
  26 H     1.0000    0     1.008   -3.894780    3.894780    3.697187
  27 H     1.0000    0     1.008    3.894780   -3.894780    3.697187
  28 H     1.0000    0     1.008   -3.894780   -3.894780   -3.697187
  29 H     1.0000    0     1.008    3.894780    3.894780   -3.697187
  30 H     1.0000    0     1.008    0.000000    5.508051   -3.697187
  31 H     1.0000    0     1.008    0.000000    5.508051    3.697187
  32 H     1.0000    0     1.008    0.000000   -5.508051    3.697187

--------------------------------
INTERNAL COORDINATES (ANGSTROEM)
--------------------------------
 Ce     0   0   0     0.000000000000     0.00000000     0.00000000
 C      1   0   0     2.743478779912     0.00000000     0.00000000
 C      2   1   0     1.403999919693    75.17429450     0.00000000
 C      3   2   1     1.403999919693   135.00000000    50.28109784
 H      2   1   3     1.083545457844   127.54114747   252.88108749
 H      3   2   1     1.083545457843   112.42938860   235.06521367
 H      4   3   2     1.083545457844   112.42938860   184.78411584
 C      4   3   2     2.594253578903   112.50000000     0.00000000
 C      1   2   3     2.743478779912    96.07480541   107.11891251
 C      1   2   3     2.743478779912   180.00000000     0.00000000
 C      8   4   3     1.403999919693   112.50000000     0.00000000
 C      9   1   2     1.403999919693    75.17429450   107.11891251
 C     10   1   2     1.403999919693    75.17429450     0.00000000
 C     10   1   2     1.403999919693    75.17429450     0.00000000
 C      9   1   2     1.403999919693    75.17429450   252.88108749
 C      4   3   2     1.403999919693   135.00000000     0.00000000
 C      2   1   3     1.403999919693    75.17429450   145.76217498
 C     11   8   4     1.403999919693   135.00000000     0.00000000
 C     12   9   1     1.403999919693   135.00000000    50.28109784
 C     13  10   1     1.403999919693   135.00000000    50.28109784
 H      8   4   3     1.083545457844   134.82973826   186.24052109
 H      9   1   2     1.083545457844   127.54114747     0.00000000
 H     10   1   2     1.083545457844   127.54114747     0.00000000
 H     11   8   4     1.083545457843   112.42938860   184.78411584
 H     12   9   1     1.083545457843   112.42938860   235.06521367
 H     13  10   1     1.083545457843   112.42938860   235.06521367
 H     14  10   1     1.083545457843   112.42938860   124.93478633
 H     15   9   1     1.083545457843   112.42938860   124.93478633
 H     16   4   3     1.083545457843   112.42938860   184.78411584
 H     17   2   1     1.083545457843   112.42938860   124.93478633
 H     18  11   8     1.083545457844   112.42938860   184.78411584
 H     19  12   9     1.083545457844   112.42938860   184.78411584
 H     20  13  10     1.083545457844   112.42938860   184.78411584

---------------------------
INTERNAL COORDINATES (A.U.)
---------------------------
 Ce     0   0   0     0.000000000000     0.00000000     0.00000000
 C      1   0   0     5.184423548258     0.00000000     0.00000000
 C      2   1   0     2.653175340267    75.17429450     0.00000000
 C      3   2   1     2.653175340267   135.00000000    50.28109784
 H      2   1   3     2.047604168979   127.54114747   252.88108749
 H      3   2   1     2.047604168978   112.42938860   235.06521367
 H      4   3   2     2.047604168979   112.42938860   184.78411584
 C      4   3   2     4.902428786072   112.50000000     0.00000000
 C      1   2   3     5.184423548258    96.07480541   107.11891251
 C      1   2   3     5.184423548258   180.00000000     0.00000000
 C      8   4   3     2.653175340267   112.50000000     0.00000000
 C      9   1   2     2.653175340267    75.17429450   107.11891251
 C     10   1   2     2.653175340267    75.17429450     0.00000000
 C     10   1   2     2.653175340267    75.17429450     0.00000000
 C      9   1   2     2.653175340267    75.17429450   252.88108749
 C      4   3   2     2.653175340267   135.00000000     0.00000000
 C      2   1   3     2.653175340267    75.17429450   145.76217498
 C     11   8   4     2.653175340267   135.00000000     0.00000000
 C     12   9   1     2.653175340267   135.00000000    50.28109784
 C     13  10   1     2.653175340267   135.00000000    50.28109784
 H      8   4   3     2.047604168979   134.82973826   186.24052109
 H      9   1   2     2.047604168979   127.54114747     0.00000000
 H     10   1   2     2.047604168979   127.54114747     0.00000000
 H     11   8   4     2.047604168978   112.42938860   184.78411584
 H     12   9   1     2.047604168978   112.42938860   235.06521367
 H     13  10   1     2.047604168978   112.42938860   235.06521367
 H     14  10   1     2.047604168978   112.42938860   124.93478633
 H     15   9   1     2.047604168978   112.42938860   124.93478633
 H     16   4   3     2.047604168978   112.42938860   184.78411584
 H     17   2   1     2.047604168978   112.42938860   124.93478633
 H     18  11   8     2.047604168979   112.42938860   184.78411584
 H     19  12   9     2.047604168979   112.42938860   184.78411584
 H     20  13  10     2.047604168979   112.42938860   184.78411584

---------------------
BASIS SET INFORMATION
---------------------
There are 3 groups of distinct atoms

 Group   1 Type Ce  : 23s16p12d7f3g2h contracted to 18s12p9d4f3g2h pattern {611111111111111111/511111111111/411111111/4111/111/11}
 Group   2 Type C   : 11s6p2d1f contracted to 6s3p2d1f pattern {611111/411/11/1}
 Group   3 Type H   : 5s1p contracted to 3s1p pattern {311/1}

Atom   0Ce   basis set group =>   1
Atom   1C    basis set group =>   2
Atom   2C    basis set group =>   2
Atom   3C    basis set group =>   2
Atom   4H    basis set group =>   3
Atom   5H    basis set group =>   3
Atom   6H    basis set group =>   3
Atom   7C    basis set group =>   2
Atom   8C    basis set group =>   2
Atom   9C    basis set group =>   2
Atom  10C    basis set group =>   2
Atom  11C    basis set group =>   2
Atom  12C    basis set group =>   2
Atom  13C    basis set group =>   2
Atom  14C    basis set group =>   2
Atom  15C    basis set group =>   2
Atom  16C    basis set group =>   2
Atom  17C    basis set group =>   2
Atom  18C    basis set group =>   2
Atom  19C    basis set group =>   2
Atom  20H    basis set group =>   3
Atom  21H    basis set group =>   3
Atom  22H    basis set group =>   3
Atom  23H    basis set group =>   3
Atom  24H    basis set group =>   3
Atom  25H    basis set group =>   3
Atom  26H    basis set group =>   3
Atom  27H    basis set group =>   3
Atom  28H    basis set group =>   3
Atom  29H    basis set group =>   3
Atom  30H    basis set group =>   3
Atom  31H    basis set group =>   3
Atom  32H    basis set group =>   3
---------------------------------
AUXILIARY/J BASIS SET INFORMATION
---------------------------------
There are 3 groups of distinct atoms

 Group   1 Type Ce  : 33s30p29d28f28g25h14i5k contracted to 33s30p29d28f28g25h14i5k pattern {111111111111111111111111111111111/111111111111111111111111111111/11111111111111111111111111111/1111111111111111111111111111/1111111111111111111111111111/1111111111111111111111111/11111111111111/11111}
 Group   2 Type C   : 16s13p12d7f3g contracted to 16s13p12d7f3g pattern {1111111111111111/1111111111111/111111111111/1111111/111}
 Group   3 Type H   : 11s3p1d contracted to 11s3p1d pattern {11111111111/111/1}

Atom   0Ce   basis set group =>   1
Atom   1C    basis set group =>   2
Atom   2C    basis set group =>   2
Atom   3C    basis set group =>   2
Atom   4H    basis set group =>   3
Atom   5H    basis set group =>   3
Atom   6H    basis set group =>   3
Atom   7C    basis set group =>   2
Atom   8C    basis set group =>   2
Atom   9C    basis set group =>   2
Atom  10C    basis set group =>   2
Atom  11C    basis set group =>   2
Atom  12C    basis set group =>   2
Atom  13C    basis set group =>   2
Atom  14C    basis set group =>   2
Atom  15C    basis set group =>   2
Atom  16C    basis set group =>   2
Atom  17C    basis set group =>   2
Atom  18C    basis set group =>   2
Atom  19C    basis set group =>   2
Atom  20H    basis set group =>   3
Atom  21H    basis set group =>   3
Atom  22H    basis set group =>   3
Atom  23H    basis set group =>   3
Atom  24H    basis set group =>   3
Atom  25H    basis set group =>   3
Atom  26H    basis set group =>   3
Atom  27H    basis set group =>   3
Atom  28H    basis set group =>   3
Atom  29H    basis set group =>   3
Atom  30H    basis set group =>   3
Atom  31H    basis set group =>   3
Atom  32H    basis set group =>   3
---------------------------------
AUXILIARY/C BASIS SET INFORMATION
---------------------------------
There are 3 groups of distinct atoms

 Group   1 Type Ce  : 33s30p29d28f28g25h14i5k contracted to 33s30p29d28f28g25h14i5k pattern {111111111111111111111111111111111/111111111111111111111111111111/11111111111111111111111111111/1111111111111111111111111111/1111111111111111111111111111/1111111111111111111111111/11111111111111/11111}
 Group   2 Type C   : 16s13p12d7f3g contracted to 16s13p12d7f3g pattern {1111111111111111/1111111111111/111111111111/1111111/111}
 Group   3 Type H   : 11s3p1d contracted to 11s3p1d pattern {11111111111/111/1}

Atom   0Ce   basis set group =>   1
Atom   1C    basis set group =>   2
Atom   2C    basis set group =>   2
Atom   3C    basis set group =>   2
Atom   4H    basis set group =>   3
Atom   5H    basis set group =>   3
Atom   6H    basis set group =>   3
Atom   7C    basis set group =>   2
Atom   8C    basis set group =>   2
Atom   9C    basis set group =>   2
Atom  10C    basis set group =>   2
Atom  11C    basis set group =>   2
Atom  12C    basis set group =>   2
Atom  13C    basis set group =>   2
Atom  14C    basis set group =>   2
Atom  15C    basis set group =>   2
Atom  16C    basis set group =>   2
Atom  17C    basis set group =>   2
Atom  18C    basis set group =>   2
Atom  19C    basis set group =>   2
Atom  20H    basis set group =>   3
Atom  21H    basis set group =>   3
Atom  22H    basis set group =>   3
Atom  23H    basis set group =>   3
Atom  24H    basis set group =>   3
Atom  25H    basis set group =>   3
Atom  26H    basis set group =>   3
Atom  27H    basis set group =>   3
Atom  28H    basis set group =>   3
Atom  29H    basis set group =>   3
Atom  30H    basis set group =>   3
Atom  31H    basis set group =>   3
Atom  32H    basis set group =>   3
----------------------------------
AUXILIARY/JK BASIS SET INFORMATION
----------------------------------
There are 3 groups of distinct atoms

 Group   1 Type Ce  : 33s30p29d28f28g25h14i5k contracted to 33s30p29d28f28g25h14i5k pattern {111111111111111111111111111111111/111111111111111111111111111111/11111111111111111111111111111/1111111111111111111111111111/1111111111111111111111111111/1111111111111111111111111/11111111111111/11111}
 Group   2 Type C   : 16s13p12d7f3g contracted to 16s13p12d7f3g pattern {1111111111111111/1111111111111/111111111111/1111111/111}
 Group   3 Type H   : 11s3p1d contracted to 11s3p1d pattern {11111111111/111/1}

Atom   0Ce   basis set group =>   1
Atom   1C    basis set group =>   2
Atom   2C    basis set group =>   2
Atom   3C    basis set group =>   2
Atom   4H    basis set group =>   3
Atom   5H    basis set group =>   3
Atom   6H    basis set group =>   3
Atom   7C    basis set group =>   2
Atom   8C    basis set group =>   2
Atom   9C    basis set group =>   2
Atom  10C    basis set group =>   2
Atom  11C    basis set group =>   2
Atom  12C    basis set group =>   2
Atom  13C    basis set group =>   2
Atom  14C    basis set group =>   2
Atom  15C    basis set group =>   2
Atom  16C    basis set group =>   2
Atom  17C    basis set group =>   2
Atom  18C    basis set group =>   2
Atom  19C    basis set group =>   2
Atom  20H    basis set group =>   3
Atom  21H    basis set group =>   3
Atom  22H    basis set group =>   3
Atom  23H    basis set group =>   3
Atom  24H    basis set group =>   3
Atom  25H    basis set group =>   3
Atom  26H    basis set group =>   3
Atom  27H    basis set group =>   3
Atom  28H    basis set group =>   3
Atom  29H    basis set group =>   3
Atom  30H    basis set group =>   3
Atom  31H    basis set group =>   3
Atom  32H    basis set group =>   3
---------------------------------
AUXILIARY/X BASIS SET INFORMATION
---------------------------------
There are 3 groups of distinct atoms

 Group   1 Type Ce  : 33s30p29d28f28g25h14i5k contracted to 33s30p29d28f28g25h14i5k pattern {111111111111111111111111111111111/111111111111111111111111111111/11111111111111111111111111111/1111111111111111111111111111/1111111111111111111111111111/1111111111111111111111111/11111111111111/11111}
 Group   2 Type C   : 16s13p12d7f3g contracted to 16s13p12d7f3g pattern {1111111111111111/1111111111111/111111111111/1111111/111}
 Group   3 Type H   : 11s3p1d contracted to 11s3p1d pattern {11111111111/111/1}

Atom   0Ce   basis set group =>   1
Atom   1C    basis set group =>   2
Atom   2C    basis set group =>   2
Atom   3C    basis set group =>   2
Atom   4H    basis set group =>   3
Atom   5H    basis set group =>   3
Atom   6H    basis set group =>   3
Atom   7C    basis set group =>   2
Atom   8C    basis set group =>   2
Atom   9C    basis set group =>   2
Atom  10C    basis set group =>   2
Atom  11C    basis set group =>   2
Atom  12C    basis set group =>   2
Atom  13C    basis set group =>   2
Atom  14C    basis set group =>   2
Atom  15C    basis set group =>   2
Atom  16C    basis set group =>   2
Atom  17C    basis set group =>   2
Atom  18C    basis set group =>   2
Atom  19C    basis set group =>   2
Atom  20H    basis set group =>   3
Atom  21H    basis set group =>   3
Atom  22H    basis set group =>   3
Atom  23H    basis set group =>   3
Atom  24H    basis set group =>   3
Atom  25H    basis set group =>   3
Atom  26H    basis set group =>   3
Atom  27H    basis set group =>   3
Atom  28H    basis set group =>   3
Atom  29H    basis set group =>   3
Atom  30H    basis set group =>   3
Atom  31H    basis set group =>   3
Atom  32H    basis set group =>   3


           ************************************************************
           *        Program running with 8 parallel MPI-processes     *
           *              working on a common directory               *
           ************************************************************
------------------------------------------------------------------------------
                             ORCA STARTUP CALCULATIONS
------------------------------------------------------------------------------
------------------------------------------------------------------------------
                   ___                                                        
                  /   \      - P O W E R E D   B Y -                         
                 /     \                                                     
                 |  |  |   _    _      __       _____    __    __             
                 |  |  |  | |  | |    /  \     |  _  \  |  |  /  |          
                  \  \/   | |  | |   /    \    | | | |  |  | /  /          
                 / \  \   | |__| |  /  /\  \   | |_| |  |  |/  /          
                |  |  |   |  __  | /  /__\  \  |    /   |      \           
                |  |  |   | |  | | |   __   |  |    \   |  |\   \          
                \     /   | |  | | |  |  |  |  | |\  \  |  | \   \       
                 \___/    |_|  |_| |__|  |__|  |_| \__\ |__|  \__/        
                                                                              
                      - O R C A' S   B I G   F R I E N D -                    
                                      &                                       
                       - I N T E G R A L  F E E D E R -                       
                                                                              
 v1 FN, 2020, v2 2021, v3 2022-2024                                           
------------------------------------------------------------------------------


----------------------
SHARK INTEGRAL PACKAGE
----------------------

Number of atoms                             ...     33
Number of basis functions                   ...    784
Number of shells                            ...    304
Maximum angular momentum                    ...      5
Integral batch strategy                     ... SHARK/LIBINT Hybrid
RI-J (if used) integral strategy            ... SPLIT-RIJ (Revised 2003 algorithm where possible)
Printlevel                                  ...      1
Contraction scheme used                     ... SEGMENTED contraction
Prescreening option                         ... SCHWARTZ
   Thresh                                   ... 1.000e-12
   Tcut                                     ... 1.000e-14
   Tpresel                                  ... 1.000e-14 
Coulomb Range Separation                    ... NOT USED
Exchange Range Separation                   ... NOT USED
Multipole approximations                    ... NOT USED
Finite Nucleus Model                        ... NOT USED
CABS basis                                  ... NOT available
Auxiliary Coulomb fitting basis             ... AVAILABLE
   # of basis functions in Aux-J            ...   4704
   # of shells in Aux-J                     ...   1248
   Maximum angular momentum in Aux-J        ...      7
Auxiliary J/K fitting basis                 ... AVAILABLE
   # of basis functions in Aux-JK           ...   4704
   # of shells in Aux-JK                    ...   1248
   Maximum angular momentum in Aux-JK       ...      7
Auxiliary Correlation fitting basis         ... AVAILABLE
   # of basis functions in Aux-C            ...   4704
   # of shells in Aux-C                     ...   1248
   Maximum angular momentum in Aux-C        ...      7
Auxiliary 'external' fitting basis          ... NOT available

Checking pre-screening integrals            ... done (  0.0 sec) Dimension = 304
   => SHARK Basis and OBASIS are compatible. Storing Pre-screening
Shell pair information
Shell pair cut-off parameter TPreSel        ...   1.0e-14
Total number of shell pairs                 ...     46360
Shell pairs after pre-screening             ...     39016
Total number of primitive shell pairs       ...    115381
Primitive shell pairs kept                  ...     70181
          la=0 lb=0:  10123 shell pairs
          la=1 lb=0:  10376 shell pairs
          la=1 lb=1:   2702 shell pairs
          la=2 lb=0:   5674 shell pairs
          la=2 lb=1:   2940 shell pairs
          la=2 lb=2:    821 shell pairs
          la=3 lb=0:   2720 shell pairs
          la=3 lb=1:   1424 shell pairs
          la=3 lb=2:    772 shell pairs
          la=3 lb=3:    210 shell pairs
          la=4 lb=0:    358 shell pairs
          la=4 lb=1:    228 shell pairs
          la=4 lb=2:    123 shell pairs
          la=4 lb=3:     60 shell pairs
          la=4 lb=4:      6 shell pairs
          la=5 lb=0:    196 shell pairs
          la=5 lb=1:    152 shell pairs
          la=5 lb=2:     82 shell pairs
          la=5 lb=3:     40 shell pairs
          la=5 lb=4:      6 shell pairs
          la=5 lb=5:      3 shell pairs

Checking whether 4 symmetric matrices of dimension 784 fit in memory
:Max Core in MB      =   4000.00
 MB in use           =     71.00
 MB left             =   3929.00
 MB needed           =      9.39
 Data fit in memory  = YES
Calculating RI/J V-Matrix + Cholesky decomp.... done (  0.6 sec)
Calculating RI/JK V-Matrix + Cholesky decomp.... done (  0.6 sec)
Calculating RI/C V-Matrix + Cholesky decomp.... done (  0.6 sec)
Calculating Nuclear repulsion               ... done (  0.0 sec) ENN=   2189.125712805607 Eh

Diagonalization of the overlap matrix:
Smallest eigenvalue                        ... 8.209e-06
Time for diagonalization                   ...    0.082 sec
Threshold for overlap eigenvalues          ... 1.000e-07
Number of eigenvalues below threshold      ... 0
Time for construction of square roots      ...    0.052 sec
Total time needed                          ...    0.138 sec

-------------------
DFT GRID GENERATION
-------------------

General Integration Accuracy     IntAcc      ... 4.959
Radial Grid Type                 RadialGrid  ... OptM3 with GC (2021)
Angular Grid (max. ang.)         AngularGrid ... 6 (Lebedev-590)
Angular grid pruning method      GridPruning ... 4 (adaptive)
Weight generation scheme         WeightScheme... mBecke (2022)
Basis function cutoff            BFCut       ... 1.0000e-12
Integration weight cutoff        WCut        ... 1.0000e-14
Partially contracted basis set               ... off
Rotationally invariant grid construction     ... off
Angular grids for H and He will be reduced by one unit
Core-polarized basis detected: some atoms will have their core
                               angular grid increased.
Steep s-basis detected: some atoms will have their radial
                        grid points doubled.

Total number of grid points                  ...   421016
Total number of batches                      ...     6594
Average number of points per batch           ...       63
Average number of grid points per atom       ...    12758
Grids setup in   2.8 sec
Initializing property integral containers    ... done (  0.0 sec)

SHARK setup successfully completed in   5.2 seconds

Maximum memory used throughout the entire STARTUP-calculation: 205.7 MB


           ************************************************************
           *        Program running with 8 parallel MPI-processes     *
           *              working on a common directory               *
           ************************************************************
------------------------------------------------------------------------------
                          ORCA RELATIVISTIC HAMILTONIAN
------------------------------------------------------------------------------

Relativistic Method            ... DKH
Order of DKH treatment         ...   2
Treatment of potential         ... V(e,N)
Eps parameter for DKH          ...   0.00000000010000
Nucleus model                  ... Point Nucleus
Speed of light used            ... 137.03598950000000


            ************************************************
            *        DOUGLAS-KROLL-HESS HAMILTONIAN        *
            *   Programmed by FN according to literature   *
            *        procedures. Special thanks to         *
            *       B.A. Hess, M. Reiher and A. Wolf       *
            *     University Erlangen-Nuernberg/Bonn       *
            ************************************************

Uncontracting the basis (first version)        ... done
Number of contracted basis functions           ...  784
Number of uncontracted basis functions         ... 1093
Initializing the DKH file                      ... done
Calculating the relativistic integrals         ... done
Storing DKH matrices                           ... done
Computing the DKH transformation               ... done
Storing the transformation variables           ... done
Transforming V and pVp to p**2 space           ... done
First transformation of V and pVp              ... done
Second transformation of Veff                  ... done
Adding kinetic energy                          ... done
Back transformation of Veff to r-space         ... done
Recovering DKH matrices                        ... done
Recontracting the H-matrix (first version)     ... done
Computing the DKH correction to the H-matrix   ... done
Reading the original H-matrix                  ... done
Adding DKH correction to the H-matrix          ... done
Storing the new modified H-matrix              ... done

Maximum memory used throughout the entire REL-calculation: 218.8 MB


           ************************************************************
           *        Program running with 8 parallel MPI-processes     *
           *              working on a common directory               *
           ************************************************************
-------------------------------------------------------------------------------
                                 ORCA GUESS
                   Start orbitals & Density for SCF / CASSCF
-------------------------------------------------------------------------------

------------
SCF SETTINGS
------------
Hamiltonian:
 Ab initio Hamiltonian  Method          .... Hartree-Fock(GTOs)

Relativistic Settings:
 Scalar relativistic method             .... Douglas-Kroll-Hess
 Order of DKH procedure    Order        ....    2
 Mode of DKH-treatment                  .... V=V(e,N)
 Speed of light used       Velit        ....       137.035989
 Cutoff-constant           Eps          ....            1e-10 


General Settings:
 Integral files         IntName         .... acero
 Hartree-Fock type      HFTyp           .... CASSCF
 Total Charge           Charge          ....   -1
 Multiplicity           Mult            ....    2
 Number of Electrons    NEL             ....  171
 Basis Dimension        Dim             ....  784
 Nuclear Repulsion      ENuc            ....   2189.1257128056 Eh

---------------------
INITIAL GUESS: MOREAD
---------------------
Guess MOs are being read from file: /media/work/dumitruc/project-rennes/acero/basis-tz-qz/guess.gbw
Input Geometry matches current geometry (good)
Input basis set matches current basis set (good)
Occupation numbers will be reassigned to an Aufbau configuration
MOs were renormalized
Gram-Schmidt orthogonalization of all MOs with pivot on actives
                      ------------------
                      INITIAL GUESS DONE (   1.8 sec)
                      ------------------
             **** ENERGY FILE WAS UPDATED (acero.en.tmp) ****
Finished Guess after   2.0 sec
Maximum memory used throughout the entire GUESS-calculation: 98.7 MB


           ************************************************************
           *        Program running with 8 parallel MPI-processes     *
           *              working on a common directory               *
           ************************************************************
-------------------------------------------------------------------------------
                              ORCA-CASSCF
-------------------------------------------------------------------------------

Building the CAS space              ... done (7 configurations for Mult=2)
Memory for address arrays  		      ... done
Make address arrays			      ... done
Memory for buffers 			      ... done
Setting up spin-function prototypes	      ... (MAXOPEN=1) 1 3 done
Trivial cases - DOMO's			      ... done (  0.0 MB)
Number of open shells			    ...  1
domo->virtual excitations			... done (  0.0 MB)
domo->somo excitations				... done (  0.0 MB)
somo->virtual excitations			... done (  0.0 MB)
somo->somo excitations				... done (  0.0 MB)
Coupling container construction done

SYSTEM-SPECIFIC SETTINGS:
Number of active electrons          ...    1
Number of active orbitals           ...    7
Total number of electrons           ...  171
Total number of orbitals            ...  784
Total number aux. functions         ... 4704

Determined orbital ranges:
   Internal       0 -   84 (  85 orbitals)
   Active        85 -   91 (   7 orbitals)
   External      92 -  783 ( 692 orbitals)
Number of rotation parameters      ...  64259

CI-STEP:
CI strategy                         ... General CI
Number of multiplicity blocks       ...    1
BLOCK  0 WEIGHT=   1.0000
  Multiplicity                      ...    2
  #(Configurations)                 ...    7
  #(CSFs)                           ...    7
  #(Roots)                          ...    7
    ROOT=0 WEIGHT=    0.142857
    ROOT=1 WEIGHT=    0.142857
    ROOT=2 WEIGHT=    0.142857
    ROOT=3 WEIGHT=    0.142857
    ROOT=4 WEIGHT=    0.142857
    ROOT=5 WEIGHT=    0.142857
    ROOT=6 WEIGHT=    0.142857

  PrintLevel                        ...    1
  N(GuessMat)                       ...      2400
  MaxDim(CI)                        ...        10
  MaxIter(CI)                       ...      2400
  Energy Tolerance CI               ...  1.00e-09
  Residual Tolerance CI             ...  1.00e-09
  Shift(CI)                         ...  1.00e-04

INTEGRAL-TRANSFORMATION-STEP:
  Algorithm                         ... RI-MO

ORBITAL-IMPROVEMENT-STEP:
  Algorithm                         ... SuperCI(PT)
  Default Parametrization           ... CAYLEY
  Act-Act rotations                 ... depends on algorithm used

  Note: SuperCI(PT) will ignore FreezeIE, FreezeAct and FreezeGrad. In general Default settings are encouraged.
        In conjunction with ShiftUp, ShiftDn or GradScaling the performance of SuperCI(PT) is less optimal.  

  MaxRot                            ... 2.00e-01 
  Max. no of vectors (DIIS)         ... 15
  DThresh (cut-off) metric          ... 1.00e-06
  Switch step at gradient           ...  3.00e-02 
  Switch step at iteration          ...        50   
  Switch step to                    ... SuperCI(PT)    

SCF-SETTINGS:
  Incremental                       ... on
  RIJCOSX approximation             ... off
  RI-JK approximation               ... off
  AO integral handling              ... DIRECT
  Integral Neglect Thresh           ...  1.00e-12
  Primitive cutoff TCut             ...  1.00e-14
  Energy convergence tolerance      ...  1.00e-08
  Orbital gradient convergence      ...  1.00e-05
  Max. number of iterations         ...       120  


FINAL ORBITALS:
  Active   Orbitals                 ... f-orbitals 
  Internal Orbitals                 ... canonical 
  External Orbitals                 ... canonical 

------------------
CAS-SCF ITERATIONS
------------------


MACRO-ITERATION   1: 
   --- Inactive Energy E0 = -9468.12524378 Eh
CI-ITERATION   0: 
 -9468.442325998   0.000000000007 (    0.00)
 -9468.439867664   0.000000000013
 -9468.439867611   0.000000000004
 -9468.438993297   0.000000000004
 -9468.438993262   0.000000000015
 -9468.432074983   0.000000000009
 -9468.432074224   0.000000000002
   CI-PROBLEM SOLVED
   DENSITIES MADE

                 <<<<<<<<<<<<<<<<<<INITIAL CI STATE CHECK>>>>>>>>>>>>>>>>>>

BLOCK  0 MULT= 2 NROOTS= 7 
ROOT   0:  E=   -9468.4423259975 Eh
      1.00000 [     0]: 1000000
      0.00000 [     1]: 0100000
      0.00000 [     3]: 0001000
      0.00000 [     5]: 0000010
      0.00000 [     2]: 0010000
      0.00000 [     4]: 0000100
      0.00000 [     6]: 0000001
ROOT   1:  E=   -9468.4398676644 Eh  0.067 eV    539.5 cm**-1
      0.99983 [     1]: 0100000
      0.00017 [     2]: 0010000
      0.00000 [     5]: 0000010
      0.00000 [     0]: 1000000
      0.00000 [     3]: 0001000
      0.00000 [     4]: 0000100
      0.00000 [     6]: 0000001
ROOT   2:  E=   -9468.4398676115 Eh  0.067 eV    539.6 cm**-1
      0.99983 [     2]: 0010000
      0.00017 [     1]: 0100000
      0.00000 [     6]: 0000001
      0.00000 [     0]: 1000000
      0.00000 [     4]: 0000100
      0.00000 [     5]: 0000010
      0.00000 [     3]: 0001000
ROOT   3:  E=   -9468.4389932974 Eh  0.091 eV    731.4 cm**-1
      0.92234 [     6]: 0000001
      0.07766 [     5]: 0000010
      0.00000 [     2]: 0010000
      0.00000 [     1]: 0100000
      0.00000 [     3]: 0001000
      0.00000 [     4]: 0000100
      0.00000 [     0]: 1000000
ROOT   4:  E=   -9468.4389932615 Eh  0.091 eV    731.5 cm**-1
      0.92234 [     5]: 0000010
      0.07766 [     6]: 0000001
      0.00000 [     1]: 0100000
      0.00000 [     2]: 0010000
      0.00000 [     0]: 1000000
      0.00000 [     4]: 0000100
      0.00000 [     3]: 0001000
ROOT   5:  E=   -9468.4320749826 Eh  0.279 eV   2249.8 cm**-1
      0.99964 [     4]: 0000100
      0.00036 [     3]: 0001000
      0.00000 [     5]: 0000010
      0.00000 [     2]: 0010000
      0.00000 [     1]: 0100000
      0.00000 [     6]: 0000001
      0.00000 [     0]: 1000000
ROOT   6:  E=   -9468.4320742240 Eh  0.279 eV   2250.0 cm**-1
      0.99964 [     3]: 0001000
      0.00036 [     4]: 0000100
      0.00000 [     0]: 1000000
      0.00000 [     6]: 0000001
      0.00000 [     1]: 0100000
      0.00000 [     2]: 0010000
      0.00000 [     5]: 0000010

                 <<<<<<<<<<<<<<<<<<INITIAL CI STATE CHECK>>>>>>>>>>>>>>>>>>

   E(CAS)= -9468.437742431 Eh DE=    0.000000e+00
   --- Energy gap subspaces: Ext-Act = -0.359   Act-Int = 0.576
   N(occ)=  0.14286 0.14286 0.14286 0.14286 0.14286 0.14286 0.14286
   ||g|| =     3.715503e-03 Max(G)=   -5.768795e-04 Rot=671,29
   --- Orbital Update [SuperCI(PT)]
   --- Canonicalize Internal Space
   --- Canonicalize External Space
   --- SX_PT (Skipped TA=0 IT=0): ||X|| =      0.000402152 Max(X)(99,68) =      0.000115965 
   --- SFit(Active Orbitals)

MACRO-ITERATION   2: 
   --- Inactive Energy E0 = -9468.12521344 Eh
CI-ITERATION   0: 
 -9468.442327579   0.000000000008 (    0.00)
 -9468.439868837   0.000000000010
 -9468.439868817   0.000000000006
 -9468.438992198   0.000000000005
 -9468.438992195   0.000000000004
 -9468.432075151   0.000000000004
 -9468.432075072   0.000000000002
   CI-PROBLEM SOLVED
   DENSITIES MADE
   E(CAS)= -9468.437742833 Eh DE=   -4.016038e-07
   --- Energy gap subspaces: Ext-Act = -0.359   Act-Int = 0.576
   N(occ)=  0.14286 0.14286 0.14286 0.14286 0.14286 0.14286 0.14286
   ||g|| =     2.841492e-04 Max(G)=   -5.594921e-05 Rot=99,68
   --- Orbital Update [SuperCI(PT)]
   --- Canonicalize Internal Space
   --- Canonicalize External Space
   --- SX_PT (Skipped TA=0 IT=0): ||X|| =      0.000079079 Max(X)(99,68) =     -0.000022551 
   --- SFit(Active Orbitals)

MACRO-ITERATION   3: 
   --- Inactive Energy E0 = -9468.12523600 Eh
CI-ITERATION   0: 
 -9468.442326922   0.000000000009 (    0.00)
 -9468.439868272   0.000000000006
 -9468.439868265   0.000000000009
 -9468.438993119   0.000000000009
 -9468.438993119   0.000000000011
 -9468.432075109   0.000000000004
 -9468.432075107   0.000000000004
   CI-PROBLEM SOLVED
   DENSITIES MADE
   E(CAS)= -9468.437742842 Eh DE=   -8.982170e-09
   --- Energy gap subspaces: Ext-Act = -0.359   Act-Int = 0.576
   N(occ)=  0.14286 0.14286 0.14286 0.14286 0.14286 0.14286 0.14286
   ||g|| =     1.497288e-04 Max(G)=   -1.428938e-05 Rot=91,38
                     ---- THE CAS-SCF ENERGY   HAS CONVERGED ----
                            --- FINALIZING ORBITALS ---
                    ---- DOING ONE FINAL ITERATION FOR PRINTING ----
   --- f-orbitals (depends on the molecular axis frame)
 L-Center:  0 Ce [0.000, 0.000, 0.000] 
   --- The active space contains 7 f Orbitals : OK
 Setting 85 active MO to AO f0      (99)
 Setting 86 active MO to AO f+1     (100)
 Setting 87 active MO to AO f-1     (101)
 Setting 88 active MO to AO f+2     (102)
 Setting 89 active MO to AO f-2     (103)
 Setting 90 active MO to AO f+3     (104)
 Setting 91 active MO to AO f-3     (105)
   --- Canonicalize Internal Space
   --- Canonicalize External Space

MACRO-ITERATION   4: 
   --- Inactive Energy E0 = -9468.12523600 Eh
   --- All densities will be recomputed
CI-ITERATION   0: 
 -9468.442326922   0.000000000003 (    0.00)
 -9468.439868272   0.000000000009
 -9468.439868265   0.000000000003
 -9468.438993119   0.000000000006
 -9468.438993119   0.000000000003
 -9468.432075109   0.000000000006
 -9468.432075107   0.000000000002
   CI-PROBLEM SOLVED
   DENSITIES MADE
   E(CAS)= -9468.437742842 Eh DE=    9.094947e-12
   --- Energy gap subspaces: Ext-Act = -0.359   Act-Int = 0.576
   N(occ)=  0.14286 0.14286 0.14286 0.14286 0.14286 0.14286 0.14286
   ||g|| =     1.497288e-04 Max(G)=    1.428715e-05 Rot=91,37
   --- Storing electron density for each root 
--------------
CASSCF RESULTS
--------------

Final CASSCF energy       : -9468.437742842 Eh -257649.2896 eV

----------------
ORBITAL ENERGIES
----------------

  NO   OCC          E(Eh)            E(eV) 
   0   2.0000   -1491.967473    -40598.4989 
   1   2.0000    -242.845207     -6608.1540 
   2   2.0000    -217.551151     -5919.8678 
   3   2.0000    -217.550850     -5919.8596 
   4   2.0000    -217.550850     -5919.8596 
   5   2.0000     -53.851698     -1465.3792 
   6   2.0000     -45.577412     -1240.2244 
   7   2.0000     -45.576412     -1240.1972 
   8   2.0000     -45.576412     -1240.1972 
   9   2.0000     -33.689922      -916.7494 
  10   2.0000     -33.689922      -916.7494 
  11   2.0000     -33.689913      -916.7491 
  12   2.0000     -33.689545      -916.7391 
  13   2.0000     -33.689545      -916.7391 
  14   2.0000     -11.463591      -311.9402 
  15   2.0000     -11.091271      -301.8088 
  16   2.0000     -11.091269      -301.8088 
  17   2.0000     -11.090969      -301.8006 
  18   2.0000     -11.090968      -301.8006 
  19   2.0000     -11.090967      -301.8006 
  20   2.0000     -11.090967      -301.8006 
  21   2.0000     -11.090203      -301.7798 
  22   2.0000     -11.090201      -301.7797 
  23   2.0000     -11.090200      -301.7797 
  24   2.0000     -11.090198      -301.7796 
  25   2.0000     -11.089379      -301.7574 
  26   2.0000     -11.089379      -301.7574 
  27   2.0000     -11.089378      -301.7573 
  28   2.0000     -11.089378      -301.7573 
  29   2.0000     -11.089038      -301.7481 
  30   2.0000     -11.089037      -301.7480 
  31   2.0000      -8.650268      -235.3858 
  32   2.0000      -8.647958      -235.3229 
  33   2.0000      -8.647958      -235.3229 
  34   2.0000      -4.450159      -121.0950 
  35   2.0000      -4.450159      -121.0950 
  36   2.0000      -4.449796      -121.0851 
  37   2.0000      -4.448344      -121.0456 
  38   2.0000      -4.448344      -121.0456 
  39   2.0000      -1.676175       -45.6110 
  40   2.0000      -1.021914       -27.8077 
  41   2.0000      -0.983553       -26.7638 
  42   2.0000      -0.957683       -26.0599 
  43   2.0000      -0.957683       -26.0599 
  44   2.0000      -0.927172       -25.2296 
  45   2.0000      -0.927172       -25.2296 
  46   2.0000      -0.859989       -23.4015 
  47   2.0000      -0.853251       -23.2181 
  48   2.0000      -0.853251       -23.2181 
  49   2.0000      -0.798651       -21.7324 
  50   2.0000      -0.798651       -21.7324 
  51   2.0000      -0.796769       -21.6812 
  52   2.0000      -0.796769       -21.6812 
  53   2.0000      -0.640937       -17.4408 
  54   2.0000      -0.640936       -17.4408 
  55   2.0000      -0.639755       -17.4086 
  56   2.0000      -0.639755       -17.4086 
  57   2.0000      -0.561617       -15.2824 
  58   2.0000      -0.544690       -14.8218 
  59   2.0000      -0.496344       -13.5062 
  60   2.0000      -0.496343       -13.5062 
  61   2.0000      -0.490576       -13.3492 
  62   2.0000      -0.490576       -13.3492 
  63   2.0000      -0.486622       -13.2417 
  64   2.0000      -0.486249       -13.2315 
  65   2.0000      -0.464064       -12.6278 
  66   2.0000      -0.462646       -12.5893 
  67   2.0000      -0.379552       -10.3281 
  68   2.0000      -0.373609       -10.1664 
  69   2.0000      -0.373609       -10.1664 
  70   2.0000      -0.371909       -10.1202 
  71   2.0000      -0.371908       -10.1201 
  72   2.0000      -0.348329        -9.4785 
  73   2.0000      -0.348329        -9.4785 
  74   2.0000      -0.347291        -9.4503 
  75   2.0000      -0.347291        -9.4503 
  76   2.0000      -0.341439        -9.2910 
  77   2.0000      -0.308878        -8.4050 
  78   2.0000      -0.308878        -8.4050 
  79   2.0000      -0.285133        -7.7589 
  80   2.0000      -0.285133        -7.7589 
  81   2.0000      -0.135612        -3.6902 
  82   2.0000      -0.135612        -3.6902 
  83   2.0000      -0.088464        -2.4072 
  84   2.0000      -0.088463        -2.4072 
  85   0.1429       0.487807        13.2739 
  86   0.1429       0.491054        13.3623 
  87   0.1429       0.491054        13.3623 
  88   0.1429       0.498070        13.5532 
  89   0.1429       0.498070        13.5532 
  90   0.1429       0.489873        13.3301 
  91   0.1429       0.489873        13.3301 
  92   0.0000       0.138945         3.7809 
  93   0.0000       0.138945         3.7809 
  94   0.0000       0.152207         4.1418 
  95   0.0000       0.154136         4.1942 
  96   0.0000       0.240670         6.5490 
  97   0.0000       0.240712         6.5501 
  98   0.0000       0.240712         6.5501 
  99   0.0000       0.246673         6.7123 
 100   0.0000       0.246674         6.7123 
 101   0.0000       0.254129         6.9152 
 102   0.0000       0.288388         7.8474 
 103   0.0000       0.288388         7.8474 
 104   0.0000       0.294406         8.0112 
 105   0.0000       0.303530         8.2595 
 106   0.0000       0.303530         8.2595 
 107   0.0000       0.313173         8.5219 
 108   0.0000       0.313173         8.5219 
 109   0.0000       0.329558         8.9677 
 110   0.0000       0.329558         8.9677 
 111   0.0000       0.332622         9.0511 
 112   0.0000       0.332623         9.0511 
 113   0.0000       0.336409         9.1542 
 114   0.0000       0.342216         9.3122 
 115   0.0000       0.342217         9.3122 
 116   0.0000       0.347325         9.4512 
 117   0.0000       0.353589         9.6217 
 118   0.0000       0.361853         9.8465 
 119   0.0000       0.361853         9.8465 
 120   0.0000       0.366510         9.9733 
 121   0.0000       0.366510         9.9733 
 122   0.0000       0.382677        10.4132 
 123   0.0000       0.382677        10.4132 
 124   0.0000       0.386582        10.5194 
 125   0.0000       0.411191        11.1891 
 126   0.0000       0.411191        11.1891 
 127   0.0000       0.419624        11.4185 
 128   0.0000       0.419624        11.4185 
 129   0.0000       0.423785        11.5318 
 130   0.0000       0.423785        11.5318 
 131   0.0000       0.437514        11.9054 
 132   0.0000       0.453317        12.3354 
 133   0.0000       0.475789        12.9469 
 134   0.0000       0.478110        13.0100 
 135   0.0000       0.478110        13.0100 
 136   0.0000       0.485500        13.2111 
 137   0.0000       0.490135        13.3372 
 138   0.0000       0.504768        13.7354 
 139   0.0000       0.504768        13.7354 
 140   0.0000       0.507467        13.8089 
 141   0.0000       0.509979        13.8772 
 142   0.0000       0.518425        14.1071 
 143   0.0000       0.518425        14.1071 
 144   0.0000       0.526459        14.3257 
 145   0.0000       0.526459        14.3257 
 146   0.0000       0.553492        15.0613 
 147   0.0000       0.553492        15.0613 
 148   0.0000       0.565326        15.3833 
 149   0.0000       0.565326        15.3833 
 150   0.0000       0.574828        15.6419 
 151   0.0000       0.574828        15.6419 
 152   0.0000       0.590874        16.0785 
 153   0.0000       0.594248        16.1703 
 154   0.0000       0.607842        16.5402 
 155   0.0000       0.607842        16.5402 
 156   0.0000       0.613710        16.6999 
 157   0.0000       0.613710        16.6999 
 158   0.0000       0.614322        16.7165 
 159   0.0000       0.614322        16.7165 
 160   0.0000       0.630287        17.1510 
 161   0.0000       0.630288        17.1510 
 162   0.0000       0.631019        17.1709 
 163   0.0000       0.636028        17.3072 
 164   0.0000       0.636028        17.3072 
 165   0.0000       0.649025        17.6609 
 166   0.0000       0.649025        17.6609 
 167   0.0000       0.658123        17.9084 
 168   0.0000       0.658123        17.9084 
 169   0.0000       0.679118        18.4797 
 170   0.0000       0.698600        19.0099 
 171   0.0000       0.710919        19.3451 
 172   0.0000       0.710919        19.3451 
 173   0.0000       0.719418        19.5764 
 174   0.0000       0.719719        19.5845 
 175   0.0000       0.721933        19.6448 
 176   0.0000       0.732026        19.9194 
 177   0.0000       0.732026        19.9194 
 178   0.0000       0.734095        19.9757 
 179   0.0000       0.739033        20.1101 
 180   0.0000       0.739034        20.1101 
 181   0.0000       0.739243        20.1158 
 182   0.0000       0.739244        20.1158 
 183   0.0000       0.739507        20.1230 
 184   0.0000       0.746990        20.3266 
 185   0.0000       0.746990        20.3266 
 186   0.0000       0.753155        20.4944 
 187   0.0000       0.753155        20.4944 
 188   0.0000       0.754103        20.5202 
 189   0.0000       0.754103        20.5202 
 190   0.0000       0.758251        20.6331 
 191   0.0000       0.774860        21.0850 
 192   0.0000       0.774860        21.0850 
 193   0.0000       0.784915        21.3586 
 194   0.0000       0.784915        21.3586 
 195   0.0000       0.813323        22.1316 
 196   0.0000       0.813323        22.1316 
 197   0.0000       0.820683        22.3319 
 198   0.0000       0.820683        22.3319 
 199   0.0000       0.824482        22.4353 
 200   0.0000       0.824482        22.4353 
 201   0.0000       0.826189        22.4817 
 202   0.0000       0.826189        22.4818 
 203   0.0000       0.851351        23.1664 
 204   0.0000       0.857124        23.3235 
 205   0.0000       0.857124        23.3235 
 206   0.0000       0.865280        23.5455 
 207   0.0000       0.865280        23.5455 
 208   0.0000       0.876289        23.8450 
 209   0.0000       0.896921        24.4065 
 210   0.0000       0.896921        24.4065 
 211   0.0000       0.897594        24.4248 
 212   0.0000       0.897594        24.4248 
 213   0.0000       0.897622        24.4255 
 214   0.0000       0.899317        24.4717 
 215   0.0000       0.920797        25.0562 
 216   0.0000       0.984880        26.7999 
 217   0.0000       0.989073        26.9140 
 218   0.0000       0.991766        26.9873 
 219   0.0000       0.992065        26.9955 
 220   0.0000       0.992065        26.9955 
 221   0.0000       0.997301        27.1379 
 222   0.0000       0.998955        27.1829 
 223   0.0000       0.998955        27.1829 
 224   0.0000       1.028175        27.9781 
 225   0.0000       1.028175        27.9781 
 226   0.0000       1.029177        28.0053 
 227   0.0000       1.048466        28.5302 
 228   0.0000       1.070855        29.1395 
 229   0.0000       1.070855        29.1395 
 230   0.0000       1.075520        29.2664 
 231   0.0000       1.075520        29.2664 
 232   0.0000       1.091264        29.6948 
 233   0.0000       1.091264        29.6948 
 234   0.0000       1.109921        30.2025 
 235   0.0000       1.109921        30.2025 
 236   0.0000       1.133193        30.8357 
 237   0.0000       1.133193        30.8357 
 238   0.0000       1.134140        30.8615 
 239   0.0000       1.134140        30.8615 
 240   0.0000       1.157877        31.5074 
 241   0.0000       1.157877        31.5074 
 242   0.0000       1.160926        31.5904 
 243   0.0000       1.184766        32.2391 
 244   0.0000       1.199382        32.6369 
 245   0.0000       1.200643        32.6711 
 246   0.0000       1.203731        32.7552 
 247   0.0000       1.215720        33.0814 
 248   0.0000       1.217045        33.1175 
 249   0.0000       1.217045        33.1175 
 250   0.0000       1.247583        33.9485 
 251   0.0000       1.247583        33.9485 
 252   0.0000       1.261499        34.3271 
 253   0.0000       1.266250        34.4564 
 254   0.0000       1.266250        34.4564 
 255   0.0000       1.268173        34.5087 
 256   0.0000       1.268173        34.5087 
 257   0.0000       1.272546        34.6277 
 258   0.0000       1.272546        34.6277 
 259   0.0000       1.296405        35.2770 
 260   0.0000       1.318852        35.8878 
 261   0.0000       1.318852        35.8878 
 262   0.0000       1.360054        37.0089 
 263   0.0000       1.362067        37.0637 
 264   0.0000       1.362067        37.0637 
 265   0.0000       1.364284        37.1241 
 266   0.0000       1.364284        37.1241 
 267   0.0000       1.390834        37.8465 
 268   0.0000       1.441437        39.2235 
 269   0.0000       1.464968        39.8638 
 270   0.0000       1.464969        39.8638 
 271   0.0000       1.469040        39.9746 
 272   0.0000       1.469040        39.9746 
 273   0.0000       1.489369        40.5278 
 274   0.0000       1.489369        40.5278 
 275   0.0000       1.494626        40.6708 
 276   0.0000       1.494626        40.6708 
 277   0.0000       1.496092        40.7107 
 278   0.0000       1.496092        40.7107 
 279   0.0000       1.499518        40.8040 
 280   0.0000       1.499518        40.8040 
 281   0.0000       1.523367        41.4529 
 282   0.0000       1.523367        41.4529 
 283   0.0000       1.551810        42.2269 
 284   0.0000       1.551810        42.2269 
 285   0.0000       1.564147        42.5626 
 286   0.0000       1.570009        42.7221 
 287   0.0000       1.570010        42.7221 
 288   0.0000       1.573205        42.8091 
 289   0.0000       1.592956        43.3465 
 290   0.0000       1.592956        43.3465 
 291   0.0000       1.623132        44.1677 
 292   0.0000       1.635149        44.4947 
 293   0.0000       1.635149        44.4947 
 294   0.0000       1.643376        44.7185 
 295   0.0000       1.643376        44.7185 
 296   0.0000       1.646843        44.8129 
 297   0.0000       1.646843        44.8129 
 298   0.0000       1.707083        46.4521 
 299   0.0000       1.733702        47.1764 
 300   0.0000       1.733702        47.1764 
 301   0.0000       1.741252        47.3819 
 302   0.0000       1.741252        47.3819 
 303   0.0000       1.750833        47.6426 
 304   0.0000       1.750833        47.6426 
 305   0.0000       1.807285        49.1787 
 306   0.0000       1.807286        49.1787 
 307   0.0000       1.815421        49.4001 
 308   0.0000       1.815421        49.4001 
 309   0.0000       1.828904        49.7670 
 310   0.0000       1.835299        49.9410 
 311   0.0000       1.835299        49.9410 
 312   0.0000       1.840212        50.0747 
 313   0.0000       1.881704        51.2038 
 314   0.0000       1.881704        51.2038 
 315   0.0000       1.894486        51.5516 
 316   0.0000       1.894487        51.5516 
 317   0.0000       1.905439        51.8496 
 318   0.0000       1.909881        51.9705 
 319   0.0000       1.909881        51.9705 
 320   0.0000       1.912372        52.0383 
 321   0.0000       1.912372        52.0383 
 322   0.0000       1.916976        52.1636 
 323   0.0000       1.916976        52.1636 
 324   0.0000       1.917363        52.1741 
 325   0.0000       1.935616        52.6708 
 326   0.0000       1.935616        52.6708 
 327   0.0000       1.965950        53.4962 
 328   0.0000       2.006567        54.6015 
 329   0.0000       2.012510        54.7632 
 330   0.0000       2.012510        54.7632 
 331   0.0000       2.022328        55.0303 
 332   0.0000       2.025869        55.1267 
 333   0.0000       2.025869        55.1267 
 334   0.0000       2.043616        55.6096 
 335   0.0000       2.064108        56.1672 
 336   0.0000       2.086835        56.7857 
 337   0.0000       2.093671        56.9717 
 338   0.0000       2.093672        56.9717 
 339   0.0000       2.100187        57.1490 
 340   0.0000       2.100188        57.1490 
 341   0.0000       2.109132        57.3924 
 342   0.0000       2.109132        57.3924 
 343   0.0000       2.137950        58.1766 
 344   0.0000       2.137950        58.1766 
 345   0.0000       2.194064        59.7035 
 346   0.0000       2.194064        59.7035 
 347   0.0000       2.198080        59.8128 
 348   0.0000       2.198080        59.8128 
 349   0.0000       2.199829        59.8604 
 350   0.0000       2.202074        59.9215 
 351   0.0000       2.209422        60.1214 
 352   0.0000       2.215162        60.2776 
 353   0.0000       2.217556        60.3428 
 354   0.0000       2.217556        60.3428 
 355   0.0000       2.220114        60.4124 
 356   0.0000       2.224640        60.5355 
 357   0.0000       2.248554        61.1863 
 358   0.0000       2.248554        61.1863 
 359   0.0000       2.279782        62.0360 
 360   0.0000       2.314097        62.9698 
 361   0.0000       2.314098        62.9698 
 362   0.0000       2.320738        63.1505 
 363   0.0000       2.332703        63.4761 
 364   0.0000       2.332703        63.4761 
 365   0.0000       2.336579        63.5816 
 366   0.0000       2.346352        63.8475 
 367   0.0000       2.371468        64.5309 
 368   0.0000       2.371468        64.5309 
 369   0.0000       2.377277        64.6890 
 370   0.0000       2.377277        64.6890 
 371   0.0000       2.380156        64.7673 
 372   0.0000       2.380156        64.7673 
 373   0.0000       2.415011        65.7158 
 374   0.0000       2.415012        65.7158 
 375   0.0000       2.418405        65.8082 
 376   0.0000       2.418405        65.8082 
 377   0.0000       2.430623        66.1406 
 378   0.0000       2.430623        66.1406 
 379   0.0000       2.469924        67.2101 
 380   0.0000       2.469924        67.2101 
 381   0.0000       2.485304        67.6285 
 382   0.0000       2.487264        67.6819 
 383   0.0000       2.487264        67.6819 
 384   0.0000       2.489918        67.7541 
 385   0.0000       2.489918        67.7541 
 386   0.0000       2.502585        68.0988 
 387   0.0000       2.506017        68.1922 
 388   0.0000       2.526470        68.7487 
 389   0.0000       2.526470        68.7487 
 390   0.0000       2.526940        68.7615 
 391   0.0000       2.539170        69.0943 
 392   0.0000       2.539171        69.0943 
 393   0.0000       2.588814        70.4452 
 394   0.0000       2.588814        70.4452 
 395   0.0000       2.609583        71.0104 
 396   0.0000       2.609583        71.0104 
 397   0.0000       2.681118        72.9569 
 398   0.0000       2.681118        72.9569 
 399   0.0000       2.696977        73.3885 
 400   0.0000       2.696977        73.3885 
 401   0.0000       2.705553        73.6218 
 402   0.0000       2.705554        73.6219 
 403   0.0000       2.720399        74.0258 
 404   0.0000       2.726593        74.1944 
 405   0.0000       2.738040        74.5059 
 406   0.0000       2.767566        75.3093 
 407   0.0000       2.767566        75.3093 
 408   0.0000       2.771376        75.4130 
 409   0.0000       2.778968        75.6196 
 410   0.0000       2.789518        75.9066 
 411   0.0000       2.789518        75.9066 
 412   0.0000       2.826252        76.9062 
 413   0.0000       2.877826        78.3096 
 414   0.0000       2.907576        79.1192 
 415   0.0000       2.907576        79.1192 
 416   0.0000       2.912245        79.2462 
 417   0.0000       2.929374        79.7123 
 418   0.0000       2.929374        79.7123 
 419   0.0000       2.934153        79.8423 
 420   0.0000       2.955459        80.4221 
 421   0.0000       2.955459        80.4221 
 422   0.0000       2.978932        81.0609 
 423   0.0000       2.978932        81.0609 
 424   0.0000       2.993997        81.4708 
 425   0.0000       2.993997        81.4708 
 426   0.0000       3.044598        82.8477 
 427   0.0000       3.044598        82.8477 
 428   0.0000       3.045540        82.8733 
 429   0.0000       3.045540        82.8734 
 430   0.0000       3.057254        83.1921 
 431   0.0000       3.065284        83.4106 
 432   0.0000       3.066217        83.4360 
 433   0.0000       3.066217        83.4360 
 434   0.0000       3.095691        84.2380 
 435   0.0000       3.103735        84.4569 
 436   0.0000       3.111942        84.6802 
 437   0.0000       3.112058        84.6834 
 438   0.0000       3.129253        85.1513 
 439   0.0000       3.129253        85.1513 
 440   0.0000       3.158951        85.9594 
 441   0.0000       3.158952        85.9594 
 442   0.0000       3.161231        86.0215 
 443   0.0000       3.161231        86.0215 
 444   0.0000       3.171848        86.3104 
 445   0.0000       3.171848        86.3104 
 446   0.0000       3.178192        86.4830 
 447   0.0000       3.178192        86.4830 
 448   0.0000       3.207097        87.2695 
 449   0.0000       3.229060        87.8672 
 450   0.0000       3.229060        87.8672 
 451   0.0000       3.236584        88.0719 
 452   0.0000       3.239787        88.1591 
 453   0.0000       3.239787        88.1591 
 454   0.0000       3.240566        88.1803 
 455   0.0000       3.240566        88.1803 
 456   0.0000       3.249230        88.4160 
 457   0.0000       3.249230        88.4160 
 458   0.0000       3.254547        88.5607 
 459   0.0000       3.254547        88.5607 
 460   0.0000       3.264508        88.8318 
 461   0.0000       3.264508        88.8318 
 462   0.0000       3.278411        89.2101 
 463   0.0000       3.278411        89.2101 
 464   0.0000       3.306203        89.9664 
 465   0.0000       3.306203        89.9664 
 466   0.0000       3.313669        90.1695 
 467   0.0000       3.313669        90.1695 
 468   0.0000       3.331325        90.6500 
 469   0.0000       3.332470        90.6811 
 470   0.0000       3.332470        90.6811 
 471   0.0000       3.339021        90.8594 
 472   0.0000       3.341581        90.9290 
 473   0.0000       3.363364        91.5218 
 474   0.0000       3.363364        91.5218 
 475   0.0000       3.384973        92.1098 
 476   0.0000       3.384973        92.1098 
 477   0.0000       3.392545        92.3158 
 478   0.0000       3.392545        92.3158 
 479   0.0000       3.398360        92.4741 
 480   0.0000       3.406749        92.7024 
 481   0.0000       3.406749        92.7024 
 482   0.0000       3.409343        92.7729 
 483   0.0000       3.409343        92.7729 
 484   0.0000       3.430947        93.3608 
 485   0.0000       3.430947        93.3608 
 486   0.0000       3.446079        93.7726 
 487   0.0000       3.467869        94.3655 
 488   0.0000       3.476031        94.5876 
 489   0.0000       3.504471        95.3615 
 490   0.0000       3.504471        95.3615 
 491   0.0000       3.522314        95.8470 
 492   0.0000       3.530762        96.0769 
[...]
      6       0.000000   0.000000   0.000000   0.000000   0.000000 1976.239422
                  6    
      0      -0.000000
      1      -0.000000
      2      -0.000000
      3      -0.000000
      4      -0.000000
      5     -1976.239422
      6       0.000000

RMS error of nonzero matrix elements =    6.2 cm**-1


-----SOC-CONSTANTS-----
---All Values in cm-1---
ZETA_F = 658.75 
------------------------




---AILFT COMPLETED SUCCESFULLY!---
-------------------------------------------------------------------------------
                     ORCA-AILFT TERMINATED SUCCESFULLY
-------------------------------------------------------------------------------


--------------
CASSCF TIMINGS
--------------

Total time                       ...       41.3 sec
Sum of individual times          ...       41.0 sec ( 99.2%)

Calculation of AO operators
Calculation of MO transformed quantities
Configuration interaction steps
   CI-setup phase                ...        0.9 sec (  2.1%)
Orbital improvement steps
Properties                       ...       40.1 sec ( 97.0%)
   SOC integral calculation      ...        0.1 sec (  0.1%)
   SSC RMEs (incl. integrals)    ...        0.0 sec (  0.0%)
   SOC RMEs                      ...        0.0 sec (  0.0%)

Maximum memory used throughout the entire CASSCF-calculation: 1114.9 MB

-------------------------   --------------------
FINAL SINGLE POINT ENERGY     -9468.447051631756
-------------------------   --------------------



           ************************************************************
           *        Program running with 8 parallel MPI-processes     *
           *              working on a common directory               *
           ************************************************************

------------------------------------------------------------------------------
                              ORCA PROPERTY CALCULATIONS
------------------------------------------------------------------------------

GBWName                                 ... acero.gbw
Number of atoms                         ...     33
Number of basis functions               ...    784
Max core memory                         ...   4000 MB

Electric properties:
Dipole moment                           ... YES(DKH)
Quadrupole moment                       ...  NO
Static polarizability (Dipole/Dipole)   ...  NO
Static polarizability (Dipole/Quad.)    ...  NO
Static polarizability (Quad./Quad.)     ...  NO
Static polarizability (Velocity)        ...  NO
Static hyperpolarizability              ...  NO

Atomic electric properties:
Dipole moment                           ...  NO
Quadrupole moment                       ...  NO
Static polarizability                   ...  NO

Choice of electric origin               ... Center of mass
Position of electric origin             ...    -0.000000     0.000000     0.000000

General magnetic properties:
Magnetizability                         ...  NO

EPR properties:
g-Tensor (aka g-matrix)                 ...  NO
Zero-Field splitting spin-orbit         ...  NO
Zero-field splitting spin-spin          ...  NO
Hyperfine couplings                     ...  NO (   0 nuclei)
Quadrupole couplings                    ...  NO (   0 nuclei)
Contact density                         ...  NO (   0 nuclei)

NMR properties:
Chemical shifts                         ...  NO (   0 nuclei)
Spin-rotation constants                 ...  NO (   0 nuclei)
Spin-spin couplings                     ...  NO (   0 nuclei,    0 pairs)

Choice of magnetic origin               ... Center of nuclear charge
Position of magnetic origin             ...    -0.000000     0.000000    -0.000000

Properties with geometric perturbations:
SCF Hessian                             ...  NO
IR spectrum                             ...  NO
VCD spectrum                            ...  NO
X-ray spectroscopy properties:
SCF XES/XAS/RIXS spectra                ...  NO

SCF SOC stabilization energy            ...  NO
Diagonal Born-Oppenheimer correction    ...  NO
DKH transformation order                ... Second
Note: picture-change corrections are only included
      for the properties annotated with "YES(DKH)"!


-------------
DIPOLE MOMENT
-------------

Method             : CASSCF/ALL STATES AVERAGE
Type of density    : Electron Density
Level              : Unrelaxed density
State              :  -1
Multiplicity       :  -1
Irrep              :   0
Energy             : -9468.4377428418665659 Eh
Basis              : AO
                                X                 Y                 Z
Electronic contribution:     -0.000001463       0.000136421      -0.000000873
Nuclear contribution   :     -0.000000000       0.000000000      -0.000000000
                        -----------------------------------------
Total Dipole Moment    :     -0.000001463       0.000136421      -0.000000873
                        -----------------------------------------
Magnitude (a.u.)       :      0.000136432
Magnitude (Debye)      :      0.000346782



--------------------
Rotational spectrum 
--------------------
 
Rotational constants in cm-1:             0.021510             0.013450             0.013450 
Rotational constants in MHz :           644.858646           403.223761           403.223761 

Dipole components along the rotational axes: 
x,y,z [a.u.] :    -0.000001     0.000097    -0.000096 
x,y,z [Debye]:    -0.000002     0.000246    -0.000244 

 

-------------
DIPOLE MOMENT
-------------

Method             : CASSCF
Type of density    : Electron Density
Level              : Unrelaxed density
State              :   0
Multiplicity       :   2
Irrep              :   0
Energy             :     0.0000000000000000 Eh
Basis              : AO
                                X                 Y                 Z
Electronic contribution:     -0.000001488       0.000136187      -0.000000916
Nuclear contribution   :     -0.000000000       0.000000000      -0.000000000
                        -----------------------------------------
Total Dipole Moment    :     -0.000001488       0.000136187      -0.000000916
                        -----------------------------------------
Magnitude (a.u.)       :      0.000136198
Magnitude (Debye)      :      0.000346188



--------------------
Rotational spectrum 
--------------------
 
Rotational constants in cm-1:             0.021510             0.013450             0.013450 
Rotational constants in MHz :           644.858646           403.223761           403.223761 

Dipole components along the rotational axes: 
x,y,z [a.u.] :    -0.000001     0.000097    -0.000096 
x,y,z [Debye]:    -0.000002     0.000246    -0.000244 

 

-------------
DIPOLE MOMENT
-------------

Method             : CASSCF
Type of density    : Electron Density
Level              : Unrelaxed density
State              :   1
Multiplicity       :   2
Irrep              :   0
Energy             :     0.0000000000000000 Eh
Basis              : AO
                                X                 Y                 Z
Electronic contribution:     -0.000001976       0.000136221      -0.000000930
Nuclear contribution   :     -0.000000000       0.000000000      -0.000000000
                        -----------------------------------------
Total Dipole Moment    :     -0.000001976       0.000136221      -0.000000930
                        -----------------------------------------
Magnitude (a.u.)       :      0.000136239
Magnitude (Debye)      :      0.000346292



--------------------
Rotational spectrum 
--------------------
 
Rotational constants in cm-1:             0.021510             0.013450             0.013450 
Rotational constants in MHz :           644.858646           403.223761           403.223761 

Dipole components along the rotational axes: 
x,y,z [a.u.] :    -0.000001     0.000096    -0.000096 
x,y,z [Debye]:    -0.000002     0.000245    -0.000245 

 

-------------
DIPOLE MOMENT
-------------

Method             : CASSCF
Type of density    : Electron Density
Level              : Unrelaxed density
State              :   2
Multiplicity       :   2
Irrep              :   0
Energy             :     0.0000000000000000 Eh
Basis              : AO
                                X                 Y                 Z
Electronic contribution:     -0.000000861       0.000136925      -0.000000793
Nuclear contribution   :     -0.000000000       0.000000000      -0.000000000
                        -----------------------------------------
Total Dipole Moment    :     -0.000000861       0.000136925      -0.000000793
                        -----------------------------------------
Magnitude (a.u.)       :      0.000136930
Magnitude (Debye)      :      0.000348049



--------------------
Rotational spectrum 
--------------------
 
Rotational constants in cm-1:             0.021510             0.013450             0.013450 
Rotational constants in MHz :           644.858646           403.223761           403.223761 

Dipole components along the rotational axes: 
x,y,z [a.u.] :    -0.000001     0.000098    -0.000096 
x,y,z [Debye]:    -0.000002     0.000248    -0.000244 

 

-------------
DIPOLE MOMENT
-------------

Method             : CASSCF
Type of density    : Electron Density
Level              : Unrelaxed density
State              :   3
Multiplicity       :   2
Irrep              :   0
Energy             :     0.0000000000000000 Eh
Basis              : AO
                                X                 Y                 Z
Electronic contribution:     -0.000001357       0.000136510      -0.000000826
Nuclear contribution   :     -0.000000000       0.000000000      -0.000000000
                        -----------------------------------------
Total Dipole Moment    :     -0.000001357       0.000136510      -0.000000826
                        -----------------------------------------
Magnitude (a.u.)       :      0.000136520
Magnitude (Debye)      :      0.000347005



--------------------
Rotational spectrum 
--------------------
 
Rotational constants in cm-1:             0.021510             0.013450             0.013450 
Rotational constants in MHz :           644.858646           403.223761           403.223761 

Dipole components along the rotational axes: 
x,y,z [a.u.] :    -0.000001     0.000097    -0.000096 
x,y,z [Debye]:    -0.000002     0.000247    -0.000244 

 

-------------
DIPOLE MOMENT
-------------

Method             : CASSCF
Type of density    : Electron Density
Level              : Unrelaxed density
State              :   4
Multiplicity       :   2
Irrep              :   0
Energy             :     0.0000000000000000 Eh
Basis              : AO
                                X                 Y                 Z
Electronic contribution:     -0.000001587       0.000136236      -0.000000856
Nuclear contribution   :     -0.000000000       0.000000000      -0.000000000
                        -----------------------------------------
Total Dipole Moment    :     -0.000001587       0.000136236      -0.000000856
                        -----------------------------------------
Magnitude (a.u.)       :      0.000136248
Magnitude (Debye)      :      0.000346314



--------------------
Rotational spectrum 
--------------------
 
Rotational constants in cm-1:             0.021510             0.013450             0.013450 
Rotational constants in MHz :           644.858646           403.223761           403.223761 

Dipole components along the rotational axes: 
x,y,z [a.u.] :    -0.000001     0.000097    -0.000096 
x,y,z [Debye]:    -0.000002     0.000246    -0.000244 

 

-------------
DIPOLE MOMENT
-------------

Method             : CASSCF
Type of density    : Electron Density
Level              : Unrelaxed density
State              :   5
Multiplicity       :   2
Irrep              :   0
Energy             :     0.0000000000000000 Eh
Basis              : AO
                                X                 Y                 Z
Electronic contribution:     -0.000001474       0.000136411      -0.000000925
Nuclear contribution   :     -0.000000000       0.000000000      -0.000000000
                        -----------------------------------------
Total Dipole Moment    :     -0.000001474       0.000136411      -0.000000925
                        -----------------------------------------
Magnitude (a.u.)       :      0.000136422
Magnitude (Debye)      :      0.000346758



--------------------
Rotational spectrum 
--------------------
 
Rotational constants in cm-1:             0.021510             0.013450             0.013450 
Rotational constants in MHz :           644.858646           403.223761           403.223761 

Dipole components along the rotational axes: 
x,y,z [a.u.] :    -0.000001     0.000097    -0.000096 
x,y,z [Debye]:    -0.000002     0.000246    -0.000244 

 

-------------
DIPOLE MOMENT
-------------

Method             : CASSCF
Type of density    : Electron Density
Level              : Unrelaxed density
State              :   6
Multiplicity       :   2
Irrep              :   0
Energy             :     0.0000000000000000 Eh
Basis              : AO
                                X                 Y                 Z
Electronic contribution:     -0.000001501       0.000136456      -0.000000860
Nuclear contribution   :     -0.000000000       0.000000000      -0.000000000
                        -----------------------------------------
Total Dipole Moment    :     -0.000001501       0.000136456      -0.000000860
                        -----------------------------------------
Magnitude (a.u.)       :      0.000136467
Magnitude (Debye)      :      0.000346872



--------------------
Rotational spectrum 
--------------------
 
Rotational constants in cm-1:             0.021510             0.013450             0.013450 
Rotational constants in MHz :           644.858646           403.223761           403.223761 

Dipole components along the rotational axes: 
x,y,z [a.u.] :    -0.000001     0.000097    -0.000096 
x,y,z [Debye]:    -0.000002     0.000246    -0.000244 

 

Dipole moment calculation done in   0.1 sec 

Maximum memory used throughout the entire PROP-calculation: 236.9 MB

--------------------------------
SUGGESTED CITATIONS FOR THIS RUN
--------------------------------

Below you find a list of papers that are relevant to this ORCA run
We neither can nor want to force you to cite these papers, but we appreciate if you do
You receive ORCA, which is the product of decades of hard work by many enthusiastic individuals, for free
The only thing we kindly ask in return is that you cite our papers,
We deeply appreciate it, if you show your appreciation for ORCA by not just citing the generic ORCA reference.

Please note that relegating all ORCA citations to the supporting information does *not* help us.
SI sections are not indexed - citations you put there will not count into any citation statistics
But we need these citations in order to attract the funding resources that allow us to do what we are doing

Therefore, if you are a happy ORCA user, please consider citing a few of the papers listed below in the main body of your paper

In addition to the list printed below, the program has created the file acero.bibtex that contains the list in bibtex format
You can import this file easily into all common literature databanks and citation aid programs


List of essential papers. We consider these as the minimum necessary citations

  1. Neese, F.
     Software update: the ORCA program system, version 6.0
     WIRES Comput. Molec. Sci. 2025 15(1), e70019
     doi.org/10.1002/wcms.7019

List of papers to cite with high priority. The work reported in these papers was absolutely
necessary for this run to complete.
Our perspective: the developers of density functionals and basis sets usually get cited in chemistry papers
Good! But without the algorithms to do something with them, the functionals or basis sets would not do anything.
Hence, in our opinion, the algorithm design and method developments papers are equally worthy of getting cited

  1. Ganyushin, D.; Neese, F.
     First-principles calculations of zero-field splitting parameters
     J. Chem. Phys. 2006 125(2), Art. No. 024103
     doi.org/10.1063/1.2213976
  2. Atanasov, M.; Ganyushin, D.; Sivalingam, K.; Neese, F.
     A Modern First-Principles View on Ligand Field Theory Through the Eyes of Correlated Multireference Wavefunctions
     Struct. Bond. 2012 142 , 149-220
     doi.org/10.1007/430_2011_57
  3. Stoychev, G.L.; Auer, A.A.; Neese, F.
     Automatic Generation of Auxiliary Basis Sets
     J. Theo. Comp. Chem. 2017 13 , 554-562
     doi.org/10.1021/acs.jctc.6b01041
  4. Kollmar, C.; Sivalingam, K.; Helmich-Paris, B.; Angeli, C.; Neese, F.
     A perturbation-based super-CI approach for the orbital optimization of a CASSCF wave function
     J. Comput. Chem. 2019 40 , 1463-1470
     doi.org/10.1002/jcc.25801
  5. Lang, L.; Neese, F.
     Spin-dependent properties in the framework of the dynamic correlation dressed complete active space method
     J. Chem. Phys. 2019 150 , 
     doi.org/10.1063/1.5085203
  6. Neese, F.
     The SHARK Integral Generation and Digestion System
     J. Comp. Chem. 2022 44(3), 381
     doi.org/10.1002/jcc.26942
  7. Ugandi, M.; Roemelt, M.
     A recursive formulation of one-electron coupling coefficients for spin-adapted configuration interaction calculations featuring many unpaired electrons
     Int. J. Quantum Chem. 2023 123 , e27045
     doi.org/10.1002/qua.27045

List of suggested additional citations. These are papers that are important in the 'surrounding' of 
of this run, or papers that preceded the highly important papers. If you like your results we are grateful for a citation.

  1. Neese, F.
     The ORCA program system
     WIRES Comput. Molec. Sci. 2012 2(1), 73-78
     doi.org/10.1002/wcms.81
  2. Ganyushin, D.; Neese, F.
     A fully variational spin-orbit coupled complete active space self-consistent field approach: Application to electron paramagnetic resonance g-tensors
     J. Chem. Phys. 2013 138 , 
     doi.org/10.1063/1.4793736
  3. Aravena, D.; Atanasov, M.; Neese, F.
     Periodic Trends in Lanthanide Compounds through the Eyes of Multireference ab Initio Theory
     Inorg. Chem. 2016 55(9), 4457-4469
     doi.org/10.1021/acs.inorgchem.6b00244
  4. Jung, J.L.; Atanasov, M.; Neese, F.
     Ab Initio Ligand-Field Theory Analysis and Covalency Trends in Actinide and Lanthanide Free Ions and Octahedral Complexes
     Inorg. Chem. 2016 56(15), 8802-8816
  5. Neese, F.
     Software update: the ORCA program system, version 4.0
     WIRES Comput. Molec. Sci. 2018 8(1), 1-6
     doi.org/10.1002/wcms.1327
  6. Neese, F.; Wennmohs, F.; Becker, U.; Riplinger, C.
     The ORCA quantum chemistry program package
     J. Chem. Phys. 2020 152(22), 224108
     doi.org/10.1063/5.0004608
  7. Neese, F.
     Software update: The ORCA program system—Version 5.0
     WIRES Comput. Molec. Sci. 2022 12(1), e1606
     doi.org/10.1002/wcms.1606

List of optional additional citations

  1. Neese, F.
     Approximate second-order SCF convergence for spin unrestricted wavefunctions
     Chem. Phys. Lett. 2000 325(1-3), 93-98
     doi.org/10.1016/s0009-2614(00)00662-x

Timings for individual modules:

Sum of individual times          ...     1516.456 sec (=  25.274 min)
Startup calculation              ...        5.327 sec (=   0.089 min)   0.4 %
Relativistic integrals           ...        3.797 sec (=   0.063 min)   0.3 %
SCF iterations                   ...        2.175 sec (=   0.036 min)   0.1 %
CASSCF iterations                ...      480.767 sec (=   8.013 min)  31.7 %
Property integrals               ...     1023.726 sec (=  17.062 min)  67.5 %
Property calculations            ...        0.664 sec (=   0.011 min)   0.0 %
                             ****ORCA TERMINATED NORMALLY****
TOTAL RUN TIME: 0 days 0 hours 25 minutes 16 seconds 653 msec
